 Entering Gaussian System, Link 0=/usr/local/g09_c01/g09
 Initial command:
 /usr/local/g09_c01/l1.exe /scr/gf/dave/114300/Gau-5119.inp -scrdir=/scr/gf/dave/114300/
 Entering Link 1 = /usr/local/g09_c01/l1.exe PID=      5121.
  
 Copyright (c) 1988,1990,1992,1993,1995,1998,2003,2009,2011,
            Gaussian, Inc.  All Rights Reserved.
  
 This is part of the Gaussian(R) 09 program.  It is based on
 the Gaussian(R) 03 system (copyright 2003, Gaussian, Inc.),
 the Gaussian(R) 98 system (copyright 1998, Gaussian, Inc.),
 the Gaussian(R) 94 system (copyright 1995, Gaussian, Inc.),
 the Gaussian 92(TM) system (copyright 1992, Gaussian, Inc.),
 the Gaussian 90(TM) system (copyright 1990, Gaussian, Inc.),
 the Gaussian 88(TM) system (copyright 1988, Gaussian, Inc.),
 the Gaussian 86(TM) system (copyright 1986, Carnegie Mellon
 University), and the Gaussian 82(TM) system (copyright 1983,
 Carnegie Mellon University). Gaussian is a federally registered
 trademark of Gaussian, Inc.
  
 This software contains proprietary and confidential information,
 including trade secrets, belonging to Gaussian, Inc.
  
 This software is provided under written license and may be
 used, copied, transmitted, or stored only in accord with that
 written license.
  
 The following legend is applicable only to US Government
 contracts under FAR:
  
                    RESTRICTED RIGHTS LEGEND
  
 Use, reproduction and disclosure by the US Government is
 subject to restrictions as set forth in subparagraphs (a)
 and (c) of the Commercial Computer Software - Restricted
 Rights clause in FAR 52.227-19.
  
 Gaussian, Inc.
 340 Quinnipiac St., Bldg. 40, Wallingford CT 06492
  
  
 ---------------------------------------------------------------
 Warning -- This program may not be used in any manner that
 competes with the business of Gaussian, Inc. or will provide
 assistance to any competitor of Gaussian, Inc.  The licensee
 of this program is prohibited from giving any competitor of
 Gaussian, Inc. access to this program.  By using this program,
 the user acknowledges that Gaussian, Inc. is engaged in the
 business of creating and licensing software in the field of
 computational chemistry and represents and warrants to the
 licensee that it is not a competitor of Gaussian, Inc. and that
 it will not use this program in any manner prohibited above.
 ---------------------------------------------------------------
  

 Cite this work as:
 Gaussian 09, Revision C.01,
 M. J. Frisch, G. W. Trucks, H. B. Schlegel, G. E. Scuseria, 
 M. A. Robb, J. R. Cheeseman, G. Scalmani, V. Barone, B. Mennucci, 
 G. A. Petersson, H. Nakatsuji, M. Caricato, X. Li, H. P. Hratchian, 
 A. F. Izmaylov, J. Bloino, G. Zheng, J. L. Sonnenberg, M. Hada, 
 M. Ehara, K. Toyota, R. Fukuda, J. Hasegawa, M. Ishida, T. Nakajima, 
 Y. Honda, O. Kitao, H. Nakai, T. Vreven, J. A. Montgomery, Jr., 
 J. E. Peralta, F. Ogliaro, M. Bearpark, J. J. Heyd, E. Brothers, 
 K. N. Kudin, V. N. Staroverov, T. Keith, R. Kobayashi, J. Normand, 
 K. Raghavachari, A. Rendell, J. C. Burant, S. S. Iyengar, J. Tomasi, 
 M. Cossi, N. Rega, J. M. Millam, M. Klene, J. E. Knox, J. B. Cross, 
 V. Bakken, C. Adamo, J. Jaramillo, R. Gomperts, R. E. Stratmann, 
 O. Yazyev, A. J. Austin, R. Cammi, C. Pomelli, J. W. Ochterski, 
 R. L. Martin, K. Morokuma, V. G. Zakrzewski, G. A. Voth, 
 P. Salvador, J. J. Dannenberg, S. Dapprich, A. D. Daniels, 
 O. Farkas, J. B. Foresman, J. V. Ortiz, J. Cioslowski, 
 and D. J. Fox, Gaussian, Inc., Wallingford CT, 2010.
 
 ******************************************
 Gaussian 09:  EM64L-G09RevC.01 23-Sep-2011
                12-Jul-2017 
 ******************************************
 %chk=molecule
 %NProcShared=8
 Will use up to    8 processors via shared memory.
 ------------------------------------------------------------
 #HF/6-31G* SCF=tight Test Pop=MK iop(6/33=2) iop(6/42=6) opt
 ------------------------------------------------------------
 1/18=20,19=15,38=1/1,3;
 2/9=110,12=2,17=6,18=5,40=1/2;
 3/5=1,6=6,7=1,11=9,16=1,25=1,30=1,71=1/1,2,3;
 4//1;
 5/5=2,32=2,38=5/2;
 6/7=2,8=2,9=2,10=2,15=8,20=1,28=1,33=2,42=6/1,2;
 7//1,2,3,16;
 1/18=20,19=15/3(2);
 2/9=110/2;
 99//99;
 2/9=110/2;
 3/5=1,6=6,7=1,11=9,16=1,25=1,30=1,71=1/1,2,3;
 4/5=5,16=3/1;
 5/5=2,32=2,38=5/2;
 7//1,2,3,16;
 1/18=20,19=15/3(-5);
 2/9=110/2;
 6/7=2,8=2,9=2,10=2,15=8,19=2,20=1,28=1,33=2,42=6/1,2;
 99/9=1/99;
 ---------------------
 remark line goes here
 ---------------------
 Charge = -1 Multiplicity = 1
 Symbolic Z-Matrix:
 C                     15.032    6.024     10.004 
 C                     14.009    5.152     9.257 
 C                     14.653    4.27      8.186 
 C                     14.       2.907     8.141 
 N                     14.563    2.019     7.142 
 C                     13.841    1.032     6.488 
 C                     14.255    0.576     5.257 
 C                     13.571   -0.426     4.615 
 C                     12.505   -0.994     5.23 
 Cl                    11.663   -2.302     4.428 
 C                     12.091   -0.576     6.444 
 C                     12.77     0.432     7.084 
 C                     13.978    2.301     9.521 
 C                     14.505    1.059     9.842 
 C                     14.441    0.582     11.144 
 C                     13.966    1.425     12.13 
 C                     13.505    2.682     11.843 
 C                     13.519    3.127     10.544 
 N                     13.106    4.441     10.193 
 C                     11.996    5.049     10.643 
 C                     11.118    4.282     11.583 
 O                     11.747    6.162     10.329 
 C                     14.937   -0.758     11.512 
 C                     14.428   -1.402     12.613 
 C                     14.888   -2.639     13.001 
 C                     15.878   -3.279     12.289 
 C                     16.407   -2.636     11.185 
 C                     15.943   -1.387     10.808 
 C                     16.382   -4.618     12.712 
 O                     17.386   -5.035     12.23 
 O                     15.723   -5.252     13.601 
 H                     15.038    0.967     4.839 
 H                     15.395    2.11      6.943 
 H                     13.084    3.035     7.849 
 H                     14.575    4.699     7.319 
 H                     15.6      4.172     8.37 
 H                     13.431    5.745     8.752 
 H                     15.684    5.455     10.442 
 H                     16.332   -0.947     10.036 
 H                     17.109   -3.064     10.67 
 H                     14.51    -3.066     13.786 
 H                     15.483    6.606     9.373 
 H                     13.727   -0.974     13.13 
 H                     10.807    3.472     11.148 
 H                     11.621    4.048     12.378 
 H                     10.356    4.828     11.832 
 H                     13.171    3.254     12.552 
 H                     13.959    1.118     13.05 
 H                     14.921    0.52      9.152 
 H                     12.486    0.719     7.966 
 H                     11.318   -0.985     6.863 
 H                     13.847   -0.723     3.734 
 H                     14.575    6.562     10.669 
 

 GradGradGradGradGradGradGradGradGradGradGradGradGradGradGradGradGradGrad
 Berny optimization.
 Initialization pass.
                           ----------------------------
                           !    Initial Parameters    !
                           ! (Angstroms and Degrees)  !
 --------------------------                            --------------------------
 ! Name  Definition              Value          Derivative Info.                !
 --------------------------------------------------------------------------------
 ! R1    R(1,2)                  1.5378         estimate D2E/DX2                !
 ! R2    R(1,38)                 0.9699         estimate D2E/DX2                !
 ! R3    R(1,42)                 0.9697         estimate D2E/DX2                !
 ! R4    R(1,53)                 0.9698         estimate D2E/DX2                !
 ! R5    R(2,3)                  1.5296         estimate D2E/DX2                !
 ! R6    R(2,19)                 1.4822         estimate D2E/DX2                !
 ! R7    R(2,37)                 0.9699         estimate D2E/DX2                !
 ! R8    R(3,4)                  1.512          estimate D2E/DX2                !
 ! R9    R(3,35)                 0.9705         estimate D2E/DX2                !
 ! R10   R(3,36)                 0.9697         estimate D2E/DX2                !
 ! R11   R(4,5)                  1.4503         estimate D2E/DX2                !
 ! R12   R(4,13)                 1.5074         estimate D2E/DX2                !
 ! R13   R(4,34)                 0.9699         estimate D2E/DX2                !
 ! R14   R(5,6)                  1.3868         estimate D2E/DX2                !
 ! R15   R(5,33)                 0.8603         estimate D2E/DX2                !
 ! R16   R(6,7)                  1.3765         estimate D2E/DX2                !
 ! R17   R(6,12)                 1.3646         estimate D2E/DX2                !
 ! R18   R(7,8)                  1.3726         estimate D2E/DX2                !
 ! R19   R(7,32)                 0.9699         estimate D2E/DX2                !
 ! R20   R(8,9)                  1.3554         estimate D2E/DX2                !
 ! R21   R(8,52)                 0.9698         estimate D2E/DX2                !
 ! R22   R(9,10)                 1.7502         estimate D2E/DX2                !
 ! R23   R(9,11)                 1.349          estimate D2E/DX2                !
 ! R24   R(11,12)                1.3736         estimate D2E/DX2                !
 ! R25   R(11,51)                0.9697         estimate D2E/DX2                !
 ! R26   R(12,50)                0.97           estimate D2E/DX2                !
 ! R27   R(13,14)                1.3868         estimate D2E/DX2                !
 ! R28   R(13,18)                1.3927         estimate D2E/DX2                !
 ! R29   R(14,15)                1.3881         estimate D2E/DX2                !
 ! R30   R(14,49)                0.9694         estimate D2E/DX2                !
 ! R31   R(15,16)                1.3815         estimate D2E/DX2                !
 ! R32   R(15,23)                1.4755         estimate D2E/DX2                !
 ! R33   R(16,17)                1.3693         estimate D2E/DX2                !
 ! R34   R(16,48)                0.9699         estimate D2E/DX2                !
 ! R35   R(17,18)                1.3732         estimate D2E/DX2                !
 ! R36   R(17,47)                0.9703         estimate D2E/DX2                !
 ! R37   R(18,19)                1.4214         estimate D2E/DX2                !
 ! R38   R(19,20)                1.3432         estimate D2E/DX2                !
 ! R39   R(20,21)                1.4976         estimate D2E/DX2                !
 ! R40   R(20,22)                1.1829         estimate D2E/DX2                !
 ! R41   R(21,44)                0.9706         estimate D2E/DX2                !
 ! R42   R(21,45)                0.9694         estimate D2E/DX2                !
 ! R43   R(21,46)                0.9699         estimate D2E/DX2                !
 ! R44   R(23,24)                1.3733         estimate D2E/DX2                !
 ! R45   R(23,28)                1.3796         estimate D2E/DX2                !
 ! R46   R(24,25)                1.3756         estimate D2E/DX2                !
 ! R47   R(24,43)                0.9705         estimate D2E/DX2                !
 ! R48   R(25,26)                1.3772         estimate D2E/DX2                !
 ! R49   R(25,41)                0.9703         estimate D2E/DX2                !
 ! R50   R(26,27)                1.3828         estimate D2E/DX2                !
 ! R51   R(26,29)                1.4919         estimate D2E/DX2                !
 ! R52   R(27,28)                1.3847         estimate D2E/DX2                !
 ! R53   R(27,40)                0.9702         estimate D2E/DX2                !
 ! R54   R(28,39)                0.97           estimate D2E/DX2                !
 ! R55   R(29,30)                1.1892         estimate D2E/DX2                !
 ! R56   R(29,31)                1.2754         estimate D2E/DX2                !
 ! A1    A(2,1,38)             109.5052         estimate D2E/DX2                !
 ! A2    A(2,1,42)             109.4896         estimate D2E/DX2                !
 ! A3    A(2,1,53)             109.5221         estimate D2E/DX2                !
 ! A4    A(38,1,42)            109.4702         estimate D2E/DX2                !
 ! A5    A(38,1,53)            109.4246         estimate D2E/DX2                !
 ! A6    A(42,1,53)            109.4156         estimate D2E/DX2                !
 ! A7    A(1,2,3)              112.7679         estimate D2E/DX2                !
 ! A8    A(1,2,19)             111.7476         estimate D2E/DX2                !
 ! A9    A(1,2,37)             107.6171         estimate D2E/DX2                !
 ! A10   A(3,2,19)             114.964          estimate D2E/DX2                !
 ! A11   A(3,2,37)             103.8204         estimate D2E/DX2                !
 ! A12   A(19,2,37)            105.0113         estimate D2E/DX2                !
 ! A13   A(2,3,4)              111.0264         estimate D2E/DX2                !
 ! A14   A(2,3,35)             109.6815         estimate D2E/DX2                !
 ! A15   A(2,3,36)             109.6693         estimate D2E/DX2                !
 ! A16   A(4,3,35)             109.7056         estimate D2E/DX2                !
 ! A17   A(4,3,36)             109.6526         estimate D2E/DX2                !
 ! A18   A(35,3,36)            107.0192         estimate D2E/DX2                !
 ! A19   A(3,4,5)              113.8772         estimate D2E/DX2                !
 ! A20   A(3,4,13)             109.966          estimate D2E/DX2                !
 ! A21   A(3,4,34)             107.3295         estimate D2E/DX2                !
 ! A22   A(5,4,13)             112.962          estimate D2E/DX2                !
 ! A23   A(5,4,34)             103.889          estimate D2E/DX2                !
 ! A24   A(13,4,34)            108.3547         estimate D2E/DX2                !
 ! A25   A(4,5,6)              123.9519         estimate D2E/DX2                !
 ! A26   A(4,5,33)             118.0331         estimate D2E/DX2                !
 ! A27   A(6,5,33)             118.015          estimate D2E/DX2                !
 ! A28   A(5,6,7)              120.0624         estimate D2E/DX2                !
 ! A29   A(5,6,12)             121.0348         estimate D2E/DX2                !
 ! A30   A(7,6,12)             118.7492         estimate D2E/DX2                !
 ! A31   A(6,7,8)              120.6804         estimate D2E/DX2                !
 ! A32   A(6,7,32)             119.649          estimate D2E/DX2                !
 ! A33   A(8,7,32)             119.6706         estimate D2E/DX2                !
 ! A34   A(7,8,9)              119.052          estimate D2E/DX2                !
 ! A35   A(7,8,52)             120.4397         estimate D2E/DX2                !
 ! A36   A(9,8,52)             120.5083         estimate D2E/DX2                !
 ! A37   A(8,9,10)             118.923          estimate D2E/DX2                !
 ! A38   A(8,9,11)             121.3201         estimate D2E/DX2                !
 ! A39   A(10,9,11)            119.7556         estimate D2E/DX2                !
 ! A40   A(9,11,12)            119.6683         estimate D2E/DX2                !
 ! A41   A(9,11,51)            120.1835         estimate D2E/DX2                !
 ! A42   A(12,11,51)           120.1483         estimate D2E/DX2                !
 ! A43   A(6,12,11)            120.4723         estimate D2E/DX2                !
 ! A44   A(6,12,50)            119.7886         estimate D2E/DX2                !
 ! A45   A(11,12,50)           119.7391         estimate D2E/DX2                !
 ! A46   A(4,13,14)            124.4995         estimate D2E/DX2                !
 ! A47   A(4,13,18)            116.0317         estimate D2E/DX2                !
 ! A48   A(14,13,18)           119.1033         estimate D2E/DX2                !
 ! A49   A(13,14,15)           120.486          estimate D2E/DX2                !
 ! A50   A(13,14,49)           119.7542         estimate D2E/DX2                !
 ! A51   A(15,14,49)           119.7598         estimate D2E/DX2                !
 ! A52   A(14,15,16)           118.3997         estimate D2E/DX2                !
 ! A53   A(14,15,23)           122.0408         estimate D2E/DX2                !
 ! A54   A(16,15,23)           119.4563         estimate D2E/DX2                !
 ! A55   A(15,16,17)           121.7586         estimate D2E/DX2                !
 ! A56   A(15,16,48)           119.1005         estimate D2E/DX2                !
 ! A57   A(17,16,48)           119.1409         estimate D2E/DX2                !
 ! A58   A(16,17,18)           119.4942         estimate D2E/DX2                !
 ! A59   A(16,17,47)           120.2597         estimate D2E/DX2                !
 ! A60   A(18,17,47)           120.2461         estimate D2E/DX2                !
 ! A61   A(13,18,17)           120.4004         estimate D2E/DX2                !
 ! A62   A(13,18,19)           117.5594         estimate D2E/DX2                !
 ! A63   A(17,18,19)           122.0202         estimate D2E/DX2                !
 ! A64   A(2,19,18)            114.9838         estimate D2E/DX2                !
 ! A65   A(2,19,20)            119.8589         estimate D2E/DX2                !
 ! A66   A(18,19,20)           125.1571         estimate D2E/DX2                !
 ! A67   A(19,20,21)           117.5767         estimate D2E/DX2                !
 ! A68   A(19,20,22)           120.7233         estimate D2E/DX2                !
 ! A69   A(21,20,22)           121.6734         estimate D2E/DX2                !
 ! A70   A(20,21,44)           109.5094         estimate D2E/DX2                !
 ! A71   A(20,21,45)           109.5218         estimate D2E/DX2                !
 ! A72   A(20,21,46)           109.4766         estimate D2E/DX2                !
 ! A73   A(44,21,45)           109.4117         estimate D2E/DX2                !
 ! A74   A(44,21,46)           109.4578         estimate D2E/DX2                !
 ! A75   A(45,21,46)           109.4499         estimate D2E/DX2                !
 ! A76   A(15,23,24)           120.0819         estimate D2E/DX2                !
 ! A77   A(15,23,28)           122.1354         estimate D2E/DX2                !
 ! A78   A(24,23,28)           117.747          estimate D2E/DX2                !
 ! A79   A(23,24,25)           121.5922         estimate D2E/DX2                !
 ! A80   A(23,24,43)           119.2083         estimate D2E/DX2                !
 ! A81   A(25,24,43)           119.1995         estimate D2E/DX2                !
 ! A82   A(24,25,26)           120.8271         estimate D2E/DX2                !
 ! A83   A(24,25,41)           119.5813         estimate D2E/DX2                !
 ! A84   A(26,25,41)           119.5915         estimate D2E/DX2                !
 ! A85   A(25,26,27)           118.1431         estimate D2E/DX2                !
 ! A86   A(25,26,29)           120.8865         estimate D2E/DX2                !
 ! A87   A(27,26,29)           120.9616         estimate D2E/DX2                !
 ! A88   A(26,27,28)           120.571          estimate D2E/DX2                !
 ! A89   A(26,27,40)           119.7021         estimate D2E/DX2                !
 ! A90   A(28,27,40)           119.727          estimate D2E/DX2                !
 ! A91   A(23,28,27)           121.1084         estimate D2E/DX2                !
 ! A92   A(23,28,39)           119.4554         estimate D2E/DX2                !
 ! A93   A(27,28,39)           119.4362         estimate D2E/DX2                !
 ! A94   A(26,29,30)           119.0122         estimate D2E/DX2                !
 ! A95   A(26,29,31)           117.9845         estimate D2E/DX2                !
 ! A96   A(30,29,31)           122.987          estimate D2E/DX2                !
 ! D1    D(38,1,2,3)           -60.0197         estimate D2E/DX2                !
 ! D2    D(38,1,2,19)           71.2963         estimate D2E/DX2                !
 ! D3    D(38,1,2,37)         -173.9163         estimate D2E/DX2                !
 ! D4    D(42,1,2,3)            60.0112         estimate D2E/DX2                !
 ! D5    D(42,1,2,19)         -168.6729         estimate D2E/DX2                !
 ! D6    D(42,1,2,37)          -53.8855         estimate D2E/DX2                !
 ! D7    D(53,1,2,3)           179.9854         estimate D2E/DX2                !
 ! D8    D(53,1,2,19)          -48.6986         estimate D2E/DX2                !
 ! D9    D(53,1,2,37)           66.0888         estimate D2E/DX2                !
 ! D10   D(1,2,3,4)            141.5496         estimate D2E/DX2                !
 ! D11   D(1,2,3,35)           -97.0412         estimate D2E/DX2                !
 ! D12   D(1,2,3,36)            20.215          estimate D2E/DX2                !
 ! D13   D(19,2,3,4)            11.86           estimate D2E/DX2                !
 ! D14   D(19,2,3,35)          133.2692         estimate D2E/DX2                !
 ! D15   D(19,2,3,36)         -109.4746         estimate D2E/DX2                !
 ! D16   D(37,2,3,4)          -102.266          estimate D2E/DX2                !
 ! D17   D(37,2,3,35)           19.1432         estimate D2E/DX2                !
 ! D18   D(37,2,3,36)          136.3994         estimate D2E/DX2                !
 ! D19   D(1,2,19,18)          -93.7088         estimate D2E/DX2                !
 ! D20   D(1,2,19,20)           86.1459         estimate D2E/DX2                !
 ! D21   D(3,2,19,18)           36.4796         estimate D2E/DX2                !
 ! D22   D(3,2,19,20)         -143.6658         estimate D2E/DX2                !
 ! D23   D(37,2,19,18)         149.9107         estimate D2E/DX2                !
 ! D24   D(37,2,19,20)         -30.2346         estimate D2E/DX2                !
 ! D25   D(2,3,4,5)            179.8801         estimate D2E/DX2                !
 ! D26   D(2,3,4,13)           -52.1872         estimate D2E/DX2                !
 ! D27   D(2,3,4,34)            65.4795         estimate D2E/DX2                !
 ! D28   D(35,3,4,5)            58.4851         estimate D2E/DX2                !
 ! D29   D(35,3,4,13)         -173.5823         estimate D2E/DX2                !
 ! D30   D(35,3,4,34)          -55.9156         estimate D2E/DX2                !
 ! D31   D(36,3,4,5)           -58.7754         estimate D2E/DX2                !
 ! D32   D(36,3,4,13)           69.1572         estimate D2E/DX2                !
 ! D33   D(36,3,4,34)         -173.1761         estimate D2E/DX2                !
 ! D34   D(3,4,5,6)           -149.6239         estimate D2E/DX2                !
 ! D35   D(3,4,5,33)            30.3702         estimate D2E/DX2                !
 ! D36   D(13,4,5,6)            83.9982         estimate D2E/DX2                !
 ! D37   D(13,4,5,33)          -96.0078         estimate D2E/DX2                !
 ! D38   D(34,4,5,6)           -33.1996         estimate D2E/DX2                !
 ! D39   D(34,4,5,33)          146.7944         estimate D2E/DX2                !
 ! D40   D(3,4,13,14)         -124.8738         estimate D2E/DX2                !
 ! D41   D(3,4,13,18)           48.098          estimate D2E/DX2                !
 ! D42   D(5,4,13,14)            3.5629         estimate D2E/DX2                !
 ! D43   D(5,4,13,18)          176.5347         estimate D2E/DX2                !
 ! D44   D(34,4,13,14)         118.0975         estimate D2E/DX2                !
 ! D45   D(34,4,13,18)         -68.9307         estimate D2E/DX2                !
 ! D46   D(4,5,6,7)            155.9914         estimate D2E/DX2                !
 ! D47   D(4,5,6,12)           -28.5696         estimate D2E/DX2                !
 ! D48   D(33,5,6,7)           -24.0026         estimate D2E/DX2                !
 ! D49   D(33,5,6,12)          151.4364         estimate D2E/DX2                !
 ! D50   D(5,6,7,8)            178.2051         estimate D2E/DX2                !
 ! D51   D(5,6,7,32)            -1.8093         estimate D2E/DX2                !
 ! D52   D(12,6,7,8)             2.6625         estimate D2E/DX2                !
 ! D53   D(12,6,7,32)         -177.3519         estimate D2E/DX2                !
 ! D54   D(5,6,12,11)         -177.7715         estimate D2E/DX2                !
 ! D55   D(5,6,12,50)            2.2154         estimate D2E/DX2                !
 ! D56   D(7,6,12,11)           -2.2738         estimate D2E/DX2                !
 ! D57   D(7,6,12,50)          177.713          estimate D2E/DX2                !
 ! D58   D(6,7,8,9)             -2.1839         estimate D2E/DX2                !
 ! D59   D(6,7,8,52)           177.8234         estimate D2E/DX2                !
 ! D60   D(32,7,8,9)           177.8305         estimate D2E/DX2                !
 ! D61   D(32,7,8,52)           -2.1622         estimate D2E/DX2                !
 ! D62   D(7,8,9,10)          -178.2883         estimate D2E/DX2                !
 ! D63   D(7,8,9,11)             1.3125         estimate D2E/DX2                !
 ! D64   D(52,8,9,10)            1.7044         estimate D2E/DX2                !
 ! D65   D(52,8,9,11)         -178.6949         estimate D2E/DX2                !
 ! D66   D(8,9,11,12)           -0.9404         estimate D2E/DX2                !
 ! D67   D(8,9,11,51)          179.0659         estimate D2E/DX2                !
 ! D68   D(10,9,11,12)         178.657          estimate D2E/DX2                !
 ! D69   D(10,9,11,51)          -1.3367         estimate D2E/DX2                !
 ! D70   D(9,11,12,6)            1.4329         estimate D2E/DX2                !
 ! D71   D(9,11,12,50)        -178.554          estimate D2E/DX2                !
 ! D72   D(51,11,12,6)        -178.5734         estimate D2E/DX2                !
 ! D73   D(51,11,12,50)          1.4397         estimate D2E/DX2                !
 ! D74   D(4,13,14,15)         179.8924         estimate D2E/DX2                !
 ! D75   D(4,13,14,49)          -0.1157         estimate D2E/DX2                !
 ! D76   D(18,13,14,15)          7.1212         estimate D2E/DX2                !
 ! D77   D(18,13,14,49)       -172.8869         estimate D2E/DX2                !
 ! D78   D(4,13,18,17)        -177.7314         estimate D2E/DX2                !
 ! D79   D(4,13,18,19)           0.6768         estimate D2E/DX2                !
 ! D80   D(14,13,18,17)         -4.3587         estimate D2E/DX2                !
 ! D81   D(14,13,18,19)        174.0495         estimate D2E/DX2                !
 ! D82   D(13,14,15,16)         -6.4537         estimate D2E/DX2                !
 ! D83   D(13,14,15,23)        177.2627         estimate D2E/DX2                !
 ! D84   D(49,14,15,16)        173.5544         estimate D2E/DX2                !
 ! D85   D(49,14,15,23)         -2.7291         estimate D2E/DX2                !
 ! D86   D(14,15,16,17)          3.0719         estimate D2E/DX2                !
 ! D87   D(14,15,16,48)       -176.9277         estimate D2E/DX2                !
 ! D88   D(23,15,16,17)        179.4541         estimate D2E/DX2                !
 ! D89   D(23,15,16,48)         -0.5456         estimate D2E/DX2                !
 ! D90   D(14,15,23,24)       -154.9103         estimate D2E/DX2                !
 ! D91   D(14,15,23,28)         27.3117         estimate D2E/DX2                !
 ! D92   D(16,15,23,24)         28.8443         estimate D2E/DX2                !
 ! D93   D(16,15,23,28)       -148.9337         estimate D2E/DX2                !
 ! D94   D(15,16,17,18)         -0.3844         estimate D2E/DX2                !
 ! D95   D(15,16,17,47)        179.6175         estimate D2E/DX2                !
 ! D96   D(48,16,17,18)        179.6152         estimate D2E/DX2                !
 ! D97   D(48,16,17,47)         -0.3828         estimate D2E/DX2                !
 ! D98   D(16,17,18,13)          1.0193         estimate D2E/DX2                !
 ! D99   D(16,17,18,19)       -177.3162         estimate D2E/DX2                !
 ! D100  D(47,17,18,13)       -178.9826         estimate D2E/DX2                !
 ! D101  D(47,17,18,19)          2.6819         estimate D2E/DX2                !
 ! D102  D(13,18,19,2)         -44.2542         estimate D2E/DX2                !
 ! D103  D(13,18,19,20)        135.8999         estimate D2E/DX2                !
 ! D104  D(17,18,19,2)         134.1264         estimate D2E/DX2                !
 ! D105  D(17,18,19,20)        -45.7194         estimate D2E/DX2                !
 ! D106  D(2,19,20,21)         179.8038         estimate D2E/DX2                !
 ! D107  D(2,19,20,22)          -2.0405         estimate D2E/DX2                !
 ! D108  D(18,19,20,21)         -0.3573         estimate D2E/DX2                !
 ! D109  D(18,19,20,22)        177.7984         estimate D2E/DX2                !
 ! D110  D(19,20,21,44)        -60.0032         estimate D2E/DX2                !
 ! D111  D(19,20,21,45)         59.9784         estimate D2E/DX2                !
 ! D112  D(19,20,21,46)        179.9866         estimate D2E/DX2                !
 ! D113  D(22,20,21,44)        121.8597         estimate D2E/DX2                !
 ! D114  D(22,20,21,45)       -118.1587         estimate D2E/DX2                !
 ! D115  D(22,20,21,46)          1.8495         estimate D2E/DX2                !
 ! D116  D(15,23,24,25)       -178.5779         estimate D2E/DX2                !
 ! D117  D(15,23,24,43)          1.4049         estimate D2E/DX2                !
 ! D118  D(28,23,24,25)         -0.7039         estimate D2E/DX2                !
 ! D119  D(28,23,24,43)        179.2789         estimate D2E/DX2                !
 ! D120  D(15,23,28,27)        178.9571         estimate D2E/DX2                !
 ! D121  D(15,23,28,39)         -1.0348         estimate D2E/DX2                !
 ! D122  D(24,23,28,27)          1.1297         estimate D2E/DX2                !
 ! D123  D(24,23,28,39)       -178.8623         estimate D2E/DX2                !
 ! D124  D(23,24,25,26)         -0.2651         estimate D2E/DX2                !
 ! D125  D(23,24,25,41)        179.7526         estimate D2E/DX2                !
 ! D126  D(43,24,25,26)        179.7521         estimate D2E/DX2                !
 ! D127  D(43,24,25,41)         -0.2301         estimate D2E/DX2                !
 ! D128  D(24,25,26,27)          0.8055         estimate D2E/DX2                !
 ! D129  D(24,25,26,29)        179.7346         estimate D2E/DX2                !
 ! D130  D(41,25,26,27)       -179.2123         estimate D2E/DX2                !
 ! D131  D(41,25,26,29)         -0.2832         estimate D2E/DX2                !
 ! D132  D(25,26,27,28)         -0.3784         estimate D2E/DX2                !
 ! D133  D(25,26,27,40)        179.651          estimate D2E/DX2                !
 ! D134  D(29,26,27,28)       -179.3066         estimate D2E/DX2                !
 ! D135  D(29,26,27,40)          0.7228         estimate D2E/DX2                !
 ! D136  D(25,26,29,30)       -166.7198         estimate D2E/DX2                !
 ! D137  D(25,26,29,31)         11.855          estimate D2E/DX2                !
 ! D138  D(27,26,29,30)         12.179          estimate D2E/DX2                !
 ! D139  D(27,26,29,31)       -169.2463         estimate D2E/DX2                !
 ! D140  D(26,27,28,23)         -0.6021         estimate D2E/DX2                !
 ! D141  D(26,27,28,39)        179.3898         estimate D2E/DX2                !
 ! D142  D(40,27,28,23)        179.3685         estimate D2E/DX2                !
 ! D143  D(40,27,28,39)         -0.6396         estimate D2E/DX2                !
 --------------------------------------------------------------------------------
 Trust Radius=3.00D-01 FncErr=1.00D-07 GrdErr=1.00D-07
 Number of steps in this run=    305 maximum allowed number of steps=    318.
 GradGradGradGradGradGradGradGradGradGradGradGradGradGradGradGradGradGrad

 Stoichiometry    C25H22ClN2O3(1-)
 Framework group  C1[X(C25H22ClN2O3)]
 Deg. of freedom   153
 Full point group                 C1      NOp   1
 Largest Abelian subgroup         C1      NOp   1
 Largest concise Abelian subgroup C1      NOp   1
                         Standard orientation:                         
 ---------------------------------------------------------------------
 Center     Atomic      Atomic             Coordinates (Angstroms)
 Number     Number       Type             X           Y           Z
 ---------------------------------------------------------------------
      1          6           0        4.271602   -2.822515   -1.940983
      2          6           0        4.053711   -1.613803   -1.015532
      3          6           0        3.435169   -0.417230   -1.740322
      4          6           0        2.430993    0.290904   -0.859198
      5          7           0        1.807132    1.440206   -1.486427
      6          6           0        1.364765    2.556295   -0.792289
      7          6           0        1.249372    3.767583   -1.435840
      8          6           0        0.778148    4.871939   -0.770732
      9          6           0        0.384291    4.744632    0.519956
     10         17           0       -0.258318    6.144533    1.350837
     11          6           0        0.471532    3.563860    1.166549
     12          6           0        0.950287    2.459808    0.504305
     13          6           0        1.430984   -0.699535   -0.319633
     14          6           0        0.056353   -0.585513   -0.463590
     15          6           0       -0.789626   -1.550077    0.066283
     16          6           0       -0.227967   -2.685835    0.616795
     17          6           0        1.128717   -2.848531    0.705562
     18          6           0        1.960172   -1.864600    0.229976
     19          7           0        3.374882   -2.001617    0.243760
     20          6           0        4.098888   -2.445268    1.284555
     21          6           0        3.361244   -2.818774    2.533213
     22          8           0        5.272518   -2.564909    1.197121
     23          6           0       -2.258220   -1.433140   -0.014934
     24          6           0       -3.051474   -2.068402    0.908759
     25          6           0       -4.424133   -2.004160    0.845556
     26          6           0       -5.052109   -1.290537   -0.150954
     27          6           0       -4.264746   -0.655864   -1.094011
     28          6           0       -2.883897   -0.734058   -1.026420
     29          6           0       -6.540794   -1.224813   -0.224193
     30          8           0       -7.051766   -0.809681   -1.214548
     31          8           0       -7.208426   -1.646307    0.777389
     32          1           0        1.503900    3.841364   -2.368828
     33          1           0        1.705380    1.429036   -2.340609
     34          1           0        2.919174    0.670010   -0.111761
     35          1           0        4.134098    0.202530   -2.003400
     36          1           0        3.000905   -0.717211   -2.553769
     37          1           0        4.926964   -1.292644   -0.741592
     38          1           0        3.420138   -3.106832   -2.308245
     39          1           0       -2.347644   -0.289888   -1.701735
     40          1           0       -4.683590   -0.151128   -1.808871
     41          1           0       -4.956489   -2.467239    1.511583
     42          1           0        4.868244   -2.573291   -2.663612
     43          1           0       -2.633607   -2.575116    1.623253
     44          1           0        2.879212   -2.045895    2.868401
     45          1           0        2.732787   -3.530506    2.337587
     46          1           0        3.993218   -3.121254    3.203940
     47          1           0        1.499835   -3.652879    1.101438
     48          1           0       -0.810428   -3.386509    0.949200
     49          1           0       -0.316402    0.173441   -0.937636
     50          1           0        0.993741    1.605565    0.961829
     51          1           0        0.197606    3.494574    2.094199
     52          1           0        0.727842    5.730775   -1.218410
     53          1           0        4.664236   -3.551095   -1.435485
 ---------------------------------------------------------------------
 Rotational constants (GHZ):      0.1249545      0.0883297      0.0584019
 Standard basis: 6-31G(d) (6D, 7F)
 There are   513 symmetry adapted basis functions of A   symmetry.
 Integral buffers will be    131072 words long.
 Raffenetti 1 integral format.
 Two-electron integral symmetry is turned on.
   513 basis functions,   980 primitive gaussians,   513 cartesian basis functions
   114 alpha electrons      114 beta electrons
       nuclear repulsion energy      3034.5937410512 Hartrees.
 NAtoms=   53 NActive=   53 NUniq=   53 SFac= 1.00D+00 NAtFMM=   60 NAOKFM=F Big=F
 One-electron integrals computed using PRISM.
 NBasis=   513 RedAO= T  NBF=   513
 NBsUse=   513 1.00D-06 NBFU=   513
 Harris functional with IExCor=  205 diagonalized for initial guess.
 ExpMin= 1.43D-01 ExpMax= 2.52D+04 ExpMxC= 3.78D+03 IAcc=1 IRadAn=         1 AccDes= 0.00D+00
 HarFok:  IExCor=  205 AccDes= 0.00D+00 IRadAn=         1 IDoV= 1
 ScaDFX=  1.000000  1.000000  1.000000  1.000000
 FoFCou: FMM=F IPFlag=           0 FMFlag=      100000 FMFlg1=           0
         NFxFlg=           0 DoJE=T BraDBF=F KetDBF=T FulRan=T
         Omega=  0.000000  0.000000  1.000000  0.000000  0.000000 ICntrl=     500 IOpCl=  0
         NMat0=    1 NMatS0=    1 NMatT0=    0 NMatD0=    1 NMtDS0=    0 NMtDT0=    0
         I1Cent=           4 NGrid=           0.
 Petite list used in FoFCou.
 Initial guess orbital symmetries:
       Occupied  (A) (A) (A) (A) (A) (A) (A) (A) (A) (A) (A) (A)
                 (A) (A) (A) (A) (A) (A) (A) (A) (A) (A) (A) (A)
                 (A) (A) (A) (A) (A) (A) (A) (A) (A) (A) (A) (A)
                 (A) (A) (A) (A) (A) (A) (A) (A) (A) (A) (A) (A)
                 (A) (A) (A) (A) (A) (A) (A) (A) (A) (A) (A) (A)
                 (A) (A) (A) (A) (A) (A) (A) (A) (A) (A) (A) (A)
                 (A) (A) (A) (A) (A) (A) (A) (A) (A) (A) (A) (A)
                 (A) (A) (A) (A) (A) (A) (A) (A) (A) (A) (A) (A)
                 (A) (A) (A) (A) (A) (A) (A) (A) (A) (A) (A) (A)
                 (A) (A) (A) (A) (A) (A)
       Virtual   (A) (A) (A) (A) (A) (A) (A) (A) (A) (A) (A) (A)
                 (A) (A) (A) (A) (A) (A) (A) (A) (A) (A) (A) (A)
                 (A) (A) (A) (A) (A) (A) (A) (A) (A) (A) (A) (A)
                 (A) (A) (A) (A) (A) (A) (A) (A) (A) (A) (A) (A)
                 (A) (A) (A) (A) (A) (A) (A) (A) (A) (A) (A) (A)
                 (A) (A) (A) (A) (A) (A) (A) (A) (A) (A) (A) (A)
                 (A) (A) (A) (A) (A) (A) (A) (A) (A) (A) (A) (A)
                 (A) (A) (A) (A) (A) (A) (A) (A) (A) (A) (A) (A)
                 (A) (A) (A) (A) (A) (A) (A) (A) (A) (A) (A) (A)
                 (A) (A) (A) (A) (A) (A) (A) (A) (A) (A) (A) (A)
                 (A) (A) (A) (A) (A) (A) (A) (A) (A) (A) (A) (A)
                 (A) (A) (A) (A) (A) (A) (A) (A) (A) (A) (A) (A)
                 (A) (A) (A) (A) (A) (A) (A) (A) (A) (A) (A) (A)
                 (A) (A) (A) (A) (A) (A) (A) (A) (A) (A) (A) (A)
                 (A) (A) (A) (A) (A) (A) (A) (A) (A) (A) (A) (A)
                 (A) (A) (A) (A) (A) (A) (A) (A) (A) (A) (A) (A)
                 (A) (A) (A) (A) (A) (A) (A) (A) (A) (A) (A) (A)
                 (A) (A) (A) (A) (A) (A) (A) (A) (A) (A) (A) (A)
                 (A) (A) (A) (A) (A) (A) (A) (A) (A) (A) (A) (A)
                 (A) (A) (A) (A) (A) (A) (A) (A) (A) (A) (A) (A)
                 (A) (A) (A) (A) (A) (A) (A) (A) (A) (A) (A) (A)
                 (A) (A) (A) (A) (A) (A) (A) (A) (A) (A) (A) (A)
                 (A) (A) (A) (A) (A) (A) (A) (A) (A) (A) (A) (A)
                 (A) (A) (A) (A) (A) (A) (A) (A) (A) (A) (A) (A)
                 (A) (A) (A) (A) (A) (A) (A) (A) (A) (A) (A) (A)
                 (A) (A) (A) (A) (A) (A) (A) (A) (A) (A) (A) (A)
                 (A) (A) (A) (A) (A) (A) (A) (A) (A) (A) (A) (A)
                 (A) (A) (A) (A) (A) (A) (A) (A) (A) (A) (A) (A)
                 (A) (A) (A) (A) (A) (A) (A) (A) (A) (A) (A) (A)
                 (A) (A) (A) (A) (A) (A) (A) (A) (A) (A) (A) (A)
                 (A) (A) (A) (A) (A) (A) (A) (A) (A) (A) (A) (A)
                 (A) (A) (A) (A) (A) (A) (A) (A) (A) (A) (A) (A)
                 (A) (A) (A) (A) (A) (A) (A) (A) (A) (A) (A) (A)
                 (A) (A) (A)
 The electronic state of the initial guess is 1-A.
 Requested convergence on RMS density matrix=1.00D-08 within 128 cycles.
 Requested convergence on MAX density matrix=1.00D-06.
 Requested convergence on             energy=1.00D-06.
 No special actions if energy rises.
 Integral accuracy reduced to 1.0D-05 until final iterations.
 Initial convergence to 1.0D-05 achieved.  Increase integral accuracy.
 SCF Done:  E(RHF) =  -1752.29012110     A.U. after   16 cycles
             Convg  =    0.6162D-08             -V/T =  1.9977

 **********************************************************************

            Population analysis using the SCF density.

 **********************************************************************

 Orbital symmetries:
 BldTbl:  Degeneracy threshold= 1.00D-02
       Occupied  (A) (A) (A) (A) (A) (A) (A) (A) (A) (A) (A) (A)
                 (A) (A) (A) (A) (A) (A) (A) (A) (A) (A) (A) (A)
                 (A) (A) (A) (A) (A) (A) (A) (A) (A) (A) (A) (A)
                 (A) (A) (A) (A) (A) (A) (A) (A) (A) (A) (A) (A)
                 (A) (A) (A) (A) (A) (A) (A) (A) (A) (A) (A) (A)
                 (A) (A) (A) (A) (A) (A) (A) (A) (A) (A) (A) (A)
                 (A) (A) (A) (A) (A) (A) (A) (A) (A) (A) (A) (A)
                 (A) (A) (A) (A) (A) (A) (A) (A) (A) (A) (A) (A)
                 (A) (A) (A) (A) (A) (A) (A) (A) (A) (A) (A) (A)
                 (A) (A) (A) (A) (A) (A)
       Virtual   (A) (A) (A) (A) (A) (A) (A) (A) (A) (A) (A) (A)
                 (A) (A) (A) (A) (A) (A) (A) (A) (A) (A) (A) (A)
                 (A) (A) (A) (A) (A) (A) (A) (A) (A) (A) (A) (A)
                 (A) (A) (A) (A) (A) (A) (A) (A) (A) (A) (A) (A)
                 (A) (A) (A) (A) (A) (A) (A) (A) (A) (A) (A) (A)
                 (A) (A) (A) (A) (A) (A) (A) (A) (A) (A) (A) (A)
                 (A) (A) (A) (A) (A) (A) (A) (A) (A) (A) (A) (A)
                 (A) (A) (A) (A) (A) (A) (A) (A) (A) (A) (A) (A)
                 (A) (A) (A) (A) (A) (A) (A) (A) (A) (A) (A) (A)
                 (A) (A) (A) (A) (A) (A) (A) (A) (A) (A) (A) (A)
                 (A) (A) (A) (A) (A) (A) (A) (A) (A) (A) (A) (A)
                 (A) (A) (A) (A) (A) (A) (A) (A) (A) (A) (A) (A)
                 (A) (A) (A) (A) (A) (A) (A) (A) (A) (A) (A) (A)
                 (A) (A) (A) (A) (A) (A) (A) (A) (A) (A) (A) (A)
                 (A) (A) (A) (A) (A) (A) (A) (A) (A) (A) (A) (A)
                 (A) (A) (A) (A) (A) (A) (A) (A) (A) (A) (A) (A)
                 (A) (A) (A) (A) (A) (A) (A) (A) (A) (A) (A) (A)
                 (A) (A) (A) (A) (A) (A) (A) (A) (A) (A) (A) (A)
                 (A) (A) (A) (A) (A) (A) (A) (A) (A) (A) (A) (A)
                 (A) (A) (A) (A) (A) (A) (A) (A) (A) (A) (A) (A)
                 (A) (A) (A) (A) (A) (A) (A) (A) (A) (A) (A) (A)
                 (A) (A) (A) (A) (A) (A) (A) (A) (A) (A) (A) (A)
                 (A) (A) (A) (A) (A) (A) (A) (A) (A) (A) (A) (A)
                 (A) (A) (A) (A) (A) (A) (A) (A) (A) (A) (A) (A)
                 (A) (A) (A) (A) (A) (A) (A) (A) (A) (A) (A) (A)
                 (A) (A) (A) (A) (A) (A) (A) (A) (A) (A) (A) (A)
                 (A) (A) (A) (A) (A) (A) (A) (A) (A) (A) (A) (A)
                 (A) (A) (A) (A) (A) (A) (A) (A) (A) (A) (A) (A)
                 (A) (A) (A) (A) (A) (A) (A) (A) (A) (A) (A) (A)
                 (A) (A) (A) (A) (A) (A) (A) (A) (A) (A) (A) (A)
                 (A) (A) (A) (A) (A) (A) (A) (A) (A) (A) (A) (A)
                 (A) (A) (A) (A) (A) (A) (A) (A) (A) (A) (A) (A)
                 (A) (A) (A) (A) (A) (A) (A) (A) (A) (A) (A) (A)
                 (A) (A) (A)
 The electronic state is 1-A.
 Alpha  occ. eigenvalues -- -104.76041 -20.46204 -20.29477 -20.27123 -15.53039
 Alpha  occ. eigenvalues --  -15.49363 -11.28330 -11.22144 -11.21837 -11.20370
 Alpha  occ. eigenvalues --  -11.20365 -11.19825 -11.17322 -11.16984 -11.16970
 Alpha  occ. eigenvalues --  -11.16199 -11.16132 -11.15514 -11.15372 -11.15263
 Alpha  occ. eigenvalues --  -11.14776 -11.14383 -11.13232 -11.12869 -11.12522
 Alpha  occ. eigenvalues --  -11.12210 -11.10214 -11.09867 -11.08937 -11.08543
 Alpha  occ. eigenvalues --  -11.08366 -10.49385  -7.96324  -7.96006  -7.95996
 Alpha  occ. eigenvalues --   -1.34891  -1.22117  -1.20452  -1.19307  -1.13453
 Alpha  occ. eigenvalues --   -1.09657  -1.06470  -1.05479  -1.04534  -1.03969
 Alpha  occ. eigenvalues --   -0.99662  -0.98854  -0.98205  -0.96704  -0.94513
 Alpha  occ. eigenvalues --   -0.92728  -0.91039  -0.89314  -0.85973  -0.81870
 Alpha  occ. eigenvalues --   -0.81491  -0.79709  -0.77290  -0.76394  -0.72754
 Alpha  occ. eigenvalues --   -0.71879  -0.70969  -0.69445  -0.64786  -0.63653
 Alpha  occ. eigenvalues --   -0.63504  -0.63360  -0.62127  -0.61722  -0.59864
 Alpha  occ. eigenvalues --   -0.58808  -0.58143  -0.57609  -0.56515  -0.56246
 Alpha  occ. eigenvalues --   -0.55788  -0.55104  -0.54782  -0.54406  -0.52721
 Alpha  occ. eigenvalues --   -0.52089  -0.51521  -0.50599  -0.49954  -0.49292
 Alpha  occ. eigenvalues --   -0.48857  -0.48591  -0.47387  -0.47228  -0.46604
 Alpha  occ. eigenvalues --   -0.45261  -0.44661  -0.44225  -0.43629  -0.43121
 Alpha  occ. eigenvalues --   -0.41719  -0.40138  -0.39857  -0.39060  -0.39037
 Alpha  occ. eigenvalues --   -0.36793  -0.36646  -0.35829  -0.35363  -0.33601
 Alpha  occ. eigenvalues --   -0.29237  -0.27055  -0.25927  -0.23739  -0.21730
 Alpha  occ. eigenvalues --   -0.21092  -0.19258  -0.18310  -0.17624
 Alpha virt. eigenvalues --    0.18508   0.19460   0.20553   0.21591   0.26612
 Alpha virt. eigenvalues --    0.26784   0.26987   0.29127   0.29699   0.30981
 Alpha virt. eigenvalues --    0.32305   0.33392   0.34919   0.35763   0.36646
 Alpha virt. eigenvalues --    0.37061   0.37312   0.38013   0.38439   0.39417
 Alpha virt. eigenvalues --    0.39702   0.40214   0.40355   0.40832   0.42035
 Alpha virt. eigenvalues --    0.42404   0.42675   0.43440   0.44684   0.44833
 Alpha virt. eigenvalues --    0.45719   0.46455   0.47429   0.48127   0.48220
 Alpha virt. eigenvalues --    0.48790   0.48887   0.50840   0.51266   0.52525
 Alpha virt. eigenvalues --    0.53044   0.54424   0.55171   0.55517   0.56247
 Alpha virt. eigenvalues --    0.56803   0.58302   0.58912   0.59263   0.60744
 Alpha virt. eigenvalues --    0.61030   0.62452   0.62872   0.64338   0.65932
 Alpha virt. eigenvalues --    0.66947   0.67348   0.68236   0.68895   0.69654
 Alpha virt. eigenvalues --    0.69850   0.69956   0.70912   0.72757   0.73844
 Alpha virt. eigenvalues --    0.74891   0.76213   0.77080   0.78653   0.78871
 Alpha virt. eigenvalues --    0.79719   0.80530   0.81475   0.81618   0.82514
 Alpha virt. eigenvalues --    0.82952   0.83792   0.84548   0.85433   0.86527
 Alpha virt. eigenvalues --    0.87000   0.87487   0.87716   0.88410   0.88693
 Alpha virt. eigenvalues --    0.88875   0.89665   0.90266   0.90795   0.91607
 Alpha virt. eigenvalues --    0.92006   0.92535   0.92858   0.93625   0.94523
 Alpha virt. eigenvalues --    0.94698   0.95229   0.95445   0.95601   0.96394
 Alpha virt. eigenvalues --    0.96757   0.96967   0.97099   0.97920   0.99555
 Alpha virt. eigenvalues --    1.00164   1.00569   1.01605   1.02877   1.03499
 Alpha virt. eigenvalues --    1.04834   1.05047   1.05597   1.06817   1.07124
 Alpha virt. eigenvalues --    1.08383   1.09397   1.09725   1.10401   1.11864
 Alpha virt. eigenvalues --    1.12541   1.13365   1.14079   1.15161   1.16496
 Alpha virt. eigenvalues --    1.17555   1.18083   1.18937   1.19804   1.20990
 Alpha virt. eigenvalues --    1.21157   1.21683   1.22149   1.22855   1.23430
 Alpha virt. eigenvalues --    1.23825   1.24548   1.24698   1.25647   1.26635
 Alpha virt. eigenvalues --    1.26750   1.26874   1.27472   1.27769   1.28465
 Alpha virt. eigenvalues --    1.29203   1.30328   1.30507   1.30816   1.31476
 Alpha virt. eigenvalues --    1.31974   1.32146   1.32794   1.33199   1.34083
 Alpha virt. eigenvalues --    1.34573   1.35115   1.35355   1.36097   1.37083
 Alpha virt. eigenvalues --    1.37236   1.37653   1.38531   1.38876   1.39255
 Alpha virt. eigenvalues --    1.39406   1.40201   1.41276   1.41666   1.42050
 Alpha virt. eigenvalues --    1.43249   1.43836   1.44654   1.45172   1.46353
 Alpha virt. eigenvalues --    1.47033   1.47827   1.48698   1.49257   1.49870
 Alpha virt. eigenvalues --    1.50357   1.51723   1.52324   1.53887   1.54427
 Alpha virt. eigenvalues --    1.55063   1.56105   1.56664   1.57285   1.58590
 Alpha virt. eigenvalues --    1.59183   1.59797   1.59888   1.62163   1.62805
 Alpha virt. eigenvalues --    1.66872   1.67194   1.68832   1.69726   1.70016
 Alpha virt. eigenvalues --    1.71497   1.71765   1.73637   1.75416   1.75737
 Alpha virt. eigenvalues --    1.75958   1.77606   1.79300   1.80091   1.80827
 Alpha virt. eigenvalues --    1.81103   1.82213   1.82475   1.84163   1.85093
 Alpha virt. eigenvalues --    1.85631   1.87253   1.88029   1.89058   1.89526
 Alpha virt. eigenvalues --    1.90767   1.91019   1.91719   1.92493   1.93964
 Alpha virt. eigenvalues --    1.95042   1.96147   1.98486   1.98941   2.01946
 Alpha virt. eigenvalues --    2.03405   2.06326   2.07018   2.08706   2.09989
 Alpha virt. eigenvalues --    2.12093   2.12560   2.15757   2.16478   2.16763
 Alpha virt. eigenvalues --    2.17669   2.18226   2.19827   2.20035   2.20657
 Alpha virt. eigenvalues --    2.21207   2.22207   2.22578   2.24436   2.25571
 Alpha virt. eigenvalues --    2.26703   2.26949   2.28072   2.29467   2.29776
 Alpha virt. eigenvalues --    2.30848   2.31285   2.32043   2.32293   2.33363
 Alpha virt. eigenvalues --    2.35550   2.38204   2.38586   2.39199   2.40614
 Alpha virt. eigenvalues --    2.40942   2.43909   2.44781   2.45455   2.46665
 Alpha virt. eigenvalues --    2.48038   2.48804   2.50654   2.50851   2.51529
 Alpha virt. eigenvalues --    2.52489   2.52732   2.53317   2.53953   2.54538
 Alpha virt. eigenvalues --    2.55549   2.55809   2.57723   2.57829   2.58548
 Alpha virt. eigenvalues --    2.58738   2.59298   2.59710   2.61386   2.62176
 Alpha virt. eigenvalues --    2.63245   2.63660   2.64123   2.64915   2.65790
 Alpha virt. eigenvalues --    2.67580   2.68263   2.68942   2.70425   2.71102
 Alpha virt. eigenvalues --    2.72330   2.73806   2.74841   2.76207   2.76751
 Alpha virt. eigenvalues --    2.77138   2.78089   2.78460   2.81517   2.82451
 Alpha virt. eigenvalues --    2.84432   2.86210   2.87371   2.87860   2.88840
 Alpha virt. eigenvalues --    2.91080   2.91480   2.92986   2.95960   2.96245
 Alpha virt. eigenvalues --    3.00135   3.02472   3.03099   3.05037   3.06054
 Alpha virt. eigenvalues --    3.07143   3.07783   3.08630   3.09574   3.11322
 Alpha virt. eigenvalues --    3.12009   3.12948   3.14025   3.14584   3.15473
 Alpha virt. eigenvalues --    3.16561   3.17916   3.18626   3.20259   3.20668
 Alpha virt. eigenvalues --    3.23323   3.24943   3.26475   3.27531   3.27991
 Alpha virt. eigenvalues --    3.29402   3.29836   3.31208   3.31954   3.32906
 Alpha virt. eigenvalues --    3.36526   3.38829   3.39865   3.41640   3.44754
 Alpha virt. eigenvalues --    3.46626   3.50133   3.50472   3.56827   3.61795
 Alpha virt. eigenvalues --    3.67352   3.69860   3.75274   3.77713   3.81934
 Alpha virt. eigenvalues --    3.98258   3.99423   4.11752   4.53418   4.56145
 Alpha virt. eigenvalues --    4.58319   4.59937   4.61893   4.64488   4.66916
 Alpha virt. eigenvalues --    4.67272   4.69062   4.69777   4.71010   4.72416
 Alpha virt. eigenvalues --    4.74359   4.78305   4.79959   4.83245   4.84062
 Alpha virt. eigenvalues --    4.86035   4.87135   4.90388   4.90784   4.92358
 Alpha virt. eigenvalues --    4.97009   5.02480   5.06677   5.09115   5.11282
 Alpha virt. eigenvalues --    5.19918   5.25080   5.30026   5.39672
          Condensed to atoms (all electrons):
 Mulliken atomic charges:
              1
     1  C   -0.465725
     2  C    0.047949
     3  C   -0.336420
     4  C    0.113794
     5  N   -0.856599
     6  C    0.351328
     7  C   -0.230447
     8  C   -0.141922
     9  C   -0.161696
    10  Cl  -0.034634
    11  C   -0.138029
    12  C   -0.233952
    13  C   -0.066590
    14  C   -0.216645
    15  C    0.030172
    16  C   -0.209336
    17  C   -0.201710
    18  C    0.287418
    19  N   -0.808456
    20  C    0.698902
    21  C   -0.552253
    22  O   -0.613230
    23  C    0.016044
    24  C   -0.227152
    25  C   -0.172088
    26  C   -0.116468
    27  C   -0.175378
    28  C   -0.219020
    29  C    0.741775
    30  O   -0.685853
    31  O   -0.801910
    32  H    0.184598
    33  H    0.345150
    34  H    0.190226
    35  H    0.190250
    36  H    0.176502
    37  H    0.205255
    38  H    0.173211
    39  H    0.158482
    40  H    0.201305
    41  H    0.207237
    42  H    0.160866
    43  H    0.160395
    44  H    0.204505
    45  H    0.188737
    46  H    0.206165
    47  H    0.198591
    48  H    0.198022
    49  H    0.207026
    50  H    0.212508
    51  H    0.213226
    52  H    0.205121
    53  H    0.190752
 Sum of Mulliken atomic charges =  -1.00000
 Mulliken charges with hydrogens summed into heavy atoms:
              1
     1  C    0.059104
     2  C    0.253204
     3  C    0.030332
     4  C    0.304020
     5  N   -0.511449
     6  C    0.351328
     7  C   -0.045849
     8  C    0.063199
     9  C   -0.161696
    10  Cl  -0.034634
    11  C    0.075197
    12  C   -0.021443
    13  C   -0.066590
    14  C   -0.009619
    15  C    0.030172
    16  C   -0.011314
    17  C   -0.003119
    18  C    0.287418
    19  N   -0.808456
    20  C    0.698902
    21  C    0.047155
    22  O   -0.613230
    23  C    0.016044
    24  C   -0.066756
    25  C    0.035149
    26  C   -0.116468
    27  C    0.025927
    28  C   -0.060538
    29  C    0.741775
    30  O   -0.685853
    31  O   -0.801910
 Sum of Mulliken charges with hydrogens summed into heavy atoms =  -1.00000
 DipInt: DoE/N= T F RetVal/Mat= T F Init=T NMatP=  1 IDeriv=0 Min/MaxMlt=  0  4
 Entering OneElI...
 OneElI was handed    32883471 working-precision words.
 Multipole integrals L=0 to 4 MinM= 0 MaxM= 0.
 Requested accuracy = 0.1000D-12
 PrsmSu:  NPrtUS=   1 ThrOK=F IAlg=1 NPAlg=1 LenDen=           0.
 Prism:   IPart=     0 DynPar=F LinDyn=F Incr=          96.
 PRISM was handed    32014925 working-precision words and  9610 shell-pairs
 IPart=  0 NShTot=        9610 NBatch=          59 AvBLen=       162.9
 PrSmSu:  NxtVal=             97.
 Electronic moments (au):
       -228.00000000         11.18802040          1.48147205         -0.75628061
      -9939.54429773      -6608.47601905      -1271.59790563        -19.53618458
        -10.53481549         -7.53774500      41497.67245069     -33902.01775513
       -144.91475534      -6608.15374776      27418.36532087       1987.65861668
      -2868.76501027        419.65762405      -6802.50208052       1596.14346726
   -1089778.94164697    -514646.36477474     -17903.30365616     -56875.36847722
     -23940.36356099      19299.95917578     -49812.94739071      -1571.43073129
       2266.36343954    -122752.98221466     -56048.42952211     -42523.02018656
      14775.56787598       3615.82436756      12083.01881302
 Electronic spatial extent (au):  <R**2>=          17819.6182
 DipInt: DoE/N= F T RetVal/Mat= T F Init=T NMatP=  1 IDeriv=0 Min/MaxMlt=  0  4
 Nuclear    moments (au):
        227.00000000          0.00000000          0.00000000          0.00000000
       9608.40073042       6449.50910590       1135.67614192          0.00000000
          0.00000000          0.00000000     -39372.37713551      33736.63780348
        144.24546044       6654.62606185     -26893.67203219      -2033.70900426
       2959.77771725       -404.82741790       6748.93520099      -1593.39347573
    1018584.29908549     489287.08677985      13655.97374003      52461.74692233
      22613.72799706     -19482.23036099      48884.27872972       1512.63121140
      -2408.58761875     111272.49231819      48753.17478788      37962.49789059
     -14250.80375561      -3710.59983898     -12260.09768913
 Total      moments (au):
         -1.00000000         11.18802040          1.48147205         -0.75628061
       -331.14356731       -158.96691315       -135.92176371        -19.53618458
        -10.53481549         -7.53774500       2125.29531518       -165.37995165
         -0.66929490         46.47231409        524.69328867        -46.05038758
         91.01270697         14.83020615        -53.56687954          2.74999153
     -71194.64256147     -25359.27799490      -4247.32991613      -4413.62155489
      -1326.63556393       -182.27118521       -928.66866098        -58.79951989
       -142.22417920     -11480.48989647      -7295.25473423      -4560.52229596
        524.76412037        -94.77547142       -177.07887610
 Traceless Quadrup. (au):
       -122.46615258         49.71050157         72.75565101        -19.53618458
        -10.53481549         -7.53774500
 Charge=             -1.0000 electrons
 Dipole moment (field-independent basis, Debye):
    X=             28.4371    Y=              3.7655    Z=             -1.9223  Tot=             28.7497
 Quadrupole moment (field-independent basis, Debye-Ang):
   XX=           -445.3994   YY=           -213.8159   ZZ=           -182.8194
   XY=            -26.2768   XZ=            -14.1697   YZ=            -10.1385
 Traceless Quadrupole moment (field-independent basis, Debye-Ang):
   XX=           -164.7212   YY=             66.8623   ZZ=             97.8588
   XY=            -26.2768   XZ=            -14.1697   YZ=            -10.1385
 Octapole moment (field-independent basis, Debye-Ang**2):
  XXX=           1512.7032  YYY=           -117.7111  ZZZ=             -0.4764  XYY=             33.0772
  XXY=            373.4564  XXZ=            -32.7769  XZZ=             64.7793  YZZ=             10.5556
  YYZ=            -38.1268  XYZ=              1.9573
 Hexadecapole moment (field-independent basis, Debye-Ang**3):
 XXXX=         -26815.3145 YYYY=          -9551.5195 ZZZZ=          -1599.7480 XXXY=          -1662.3814
 XXXZ=           -499.6745 YYYX=            -68.6521 YYYZ=           -349.7811 ZZZX=            -22.1467
 ZZZY=            -53.5684 XXYY=          -4324.1027 XXZZ=          -2747.7426 YYZZ=          -1717.7113
 XXYZ=            197.6513 YYXZ=            -35.6970 ZZXY=            -66.6964
 N-N= 3.034593741051D+03 E-N=-1.021062453186D+04  KE= 1.756272822393D+03
 Entering OneElI...
 OneElI was handed    32355295 working-precision words.
 Calculate electrostatic properties
    NBasis =   513  MinDer = 0  MaxDer = 0
    NGrid  =    53  NMatD  =   1
 Requested accuracy = 0.1000D-12
 PrsmSu:  NPrtUS=   8 ThrOK=T IAlg=1 NPAlg=1 LenDen=           0.
 Prism:   IPart=     0 DynPar=F LinDyn=F Incr=         512.
 PRISM was handed     3750058 working-precision words and  8021 shell-pairs
 PRISM was handed     3750058 working-precision words and  8021 shell-pairs
 PRISM was handed     3750058 working-precision words and  8021 shell-pairs
 PRISM was handed     3750058 working-precision words and  8021 shell-pairs
 PRISM was handed     3750058 working-precision words and  8021 shell-pairs
 PRISM was handed     3750058 working-precision words and  8021 shell-pairs
 PRISM was handed     3750058 working-precision words and  8021 shell-pairs
 PRISM was handed     3750058 working-precision words and  8021 shell-pairs
 IPart=  6 NShTot=       52311 NBatch=         987 AvBLen=        53.0
 IPart=  5 NShTot=       52629 NBatch=         993 AvBLen=        53.0
 IPart=  4 NShTot=       52947 NBatch=         999 AvBLen=        53.0
 IPart=  3 NShTot=       53265 NBatch=        1005 AvBLen=        53.0
 IPart=  7 NShTot=       52099 NBatch=         983 AvBLen=        53.0
 IPart=  2 NShTot=       53583 NBatch=        1011 AvBLen=        53.0
 IPart=  1 NShTot=       53901 NBatch=        1017 AvBLen=        53.0
 IPart=  0 NShTot=       54378 NBatch=        1026 AvBLen=        53.0
 PrSmSu:  NxtVal=           4097.
 --------------------------------------------------------
       Center         ----      EFG at Nuclei      ----
                      3XX-RR        3YY-RR        3ZZ-RR
 --------------------------------------------------------
     1   Atom        0.056750     -0.051691     -0.005059
     2   Atom        0.150528      0.045741     -0.196268
     3   Atom        0.013483     -0.015032      0.001549
     4   Atom        0.026740     -0.114129      0.087389
     5   Atom        0.868619     -0.399882     -0.468736
     6   Atom       -0.295857      0.069523      0.226334
     7   Atom       -0.197618      0.084621      0.112997
     8   Atom       -0.298524      0.189767      0.108757
     9   Atom       -0.059733     -0.110158      0.169891
    10   Atom        1.010281     -1.603473      0.593192
    11   Atom       -0.296376      0.129335      0.167041
    12   Atom       -0.252681      0.147162      0.105519
    13   Atom        0.181706      0.012068     -0.193774
    14   Atom        0.134037      0.089133     -0.223170
    15   Atom        0.184059      0.081141     -0.265200
    16   Atom        0.169964      0.086126     -0.256090
    17   Atom        0.187403      0.035467     -0.222869
    18   Atom       -0.126489      0.186928     -0.060440
    19   Atom       -0.491146      0.846910     -0.355764
    20   Atom        0.307361     -0.448341      0.140981
    21   Atom        0.069076      0.026811     -0.095887
    22   Atom       -0.801983     -0.586480      1.388464
    23   Atom        0.041473     -0.108702      0.067229
    24   Atom        0.196295     -0.188063     -0.008232
    25   Atom        0.190061     -0.206275      0.016213
    26   Atom        0.266998     -0.241845     -0.025153
    27   Atom        0.176240     -0.204748      0.028508
    28   Atom        0.188974     -0.184708     -0.004266
    29   Atom        0.185267     -0.392966      0.207700
    30   Atom        0.947232     -0.546845     -0.400388
    31   Atom        0.592980     -0.259569     -0.333411
    32   Atom        0.252934      0.277261     -0.530195
    33   Atom        0.554437      0.476800     -1.031237
    34   Atom        0.071771      0.155229     -0.227000
    35   Atom       -0.171142     -0.065990      0.237133
    36   Atom        0.117348      0.208568     -0.325916
    37   Atom       -0.413491      0.199603      0.213889
    38   Atom       -0.393109      0.221319      0.171791
    39   Atom        0.012578      0.121671     -0.134249
    40   Atom        0.137048      0.056075     -0.193123
    41   Atom        0.039805      0.091279     -0.131083
    42   Atom       -0.035842      0.235054     -0.199212
    43   Atom        0.118820      0.064332     -0.183151
    44   Atom        0.080941     -0.266558      0.185617
    45   Atom       -0.076093     -0.174513      0.250606
    46   Atom       -0.083873      0.214700     -0.130827
    47   Atom        0.151848     -0.310987      0.159139
    48   Atom       -0.031356     -0.171662      0.203017
    49   Atom        0.155108     -0.250059      0.094952
    50   Atom        0.305476     -0.391921      0.086445
    51   Atom        0.235905      0.280867     -0.516773
    52   Atom        0.304246     -0.401461      0.097215
    53   Atom        0.155610     -0.209163      0.053553
 --------------------------------------------------------
                        XY            XZ            YZ
 --------------------------------------------------------
     1   Atom        0.009975      0.031100     -0.093050
     2   Atom        0.007908      0.246153      0.130833
     3   Atom        0.106187      0.043427      0.028594
     4   Atom        0.146036     -0.009295      0.189899
     5   Atom        0.756421     -0.179431     -0.116221
     6   Atom       -0.055630     -0.116316     -0.184422
     7   Atom       -0.101275     -0.105045     -0.022929
     8   Atom       -0.116029     -0.144985     -0.043324
     9   Atom        0.130230      0.017060     -0.319201
    10   Atom        1.538593      0.899283     -1.975719
    11   Atom       -0.121682     -0.172119     -0.022619
    12   Atom       -0.080715     -0.077729     -0.043501
    13   Atom       -0.011283      0.034520     -0.200126
    14   Atom       -0.010851      0.011016     -0.241759
    15   Atom       -0.002236      0.001913     -0.248630
    16   Atom        0.018974     -0.006106     -0.213817
    17   Atom       -0.032611     -0.007748     -0.203111
    18   Atom        0.055813     -0.014492     -0.203329
    19   Atom        0.126297      0.055177      0.447545
    20   Atom       -0.057158     -0.134484     -0.232035
    21   Atom       -0.027322      0.078052      0.043511
    22   Atom        0.000112      0.058537     -0.770934
    23   Atom        0.002765     -0.020907     -0.243424
    24   Atom       -0.014201     -0.000956     -0.218909
    25   Atom        0.002183     -0.032297     -0.327824
    26   Atom       -0.014867      0.003728     -0.302254
    27   Atom       -0.007484      0.010497     -0.320263
    28   Atom       -0.006100     -0.006944     -0.217433
    29   Atom       -0.010825      0.005495     -0.307170
    30   Atom        0.330901     -0.881983     -0.069125
    31   Atom       -0.480393      1.128832      0.058853
    32   Atom       -0.011361      0.233831      0.066040
    33   Atom        0.053865     -0.188425     -0.024816
    34   Atom       -0.163044     -0.347062     -0.259616
    35   Atom       -0.406267      0.171520      0.153033
    36   Atom       -0.118213     -0.337878     -0.232821
    37   Atom       -0.265310     -0.210407     -0.077460
    38   Atom       -0.228308     -0.299300     -0.103307
    39   Atom       -0.226236      0.342254      0.297073
    40   Atom        0.196383     -0.273922      0.348471
    41   Atom       -0.229990      0.326450      0.299067
    42   Atom       -0.144912      0.416664      0.171557
    43   Atom        0.201874     -0.279572      0.353838
    44   Atom        0.354221      0.158115     -0.240747
    45   Atom       -0.431052     -0.122123     -0.130723
    46   Atom        0.180915     -0.400337      0.194365
    47   Atom        0.277578     -0.146516      0.307126
    48   Atom       -0.378752      0.181571      0.228766
    49   Atom        0.264527     -0.168054      0.345018
    50   Atom        0.044386     -0.006898      0.363433
    51   Atom       -0.012861      0.243400      0.063826
    52   Atom        0.044934     -0.014115      0.362801
    53   Atom        0.275282     -0.187044      0.348469
 --------------------------------------------------------


 ---------------------------------------------------------------------------------
              Nuclear Quadrupole in Principal Axis System
 ---------------------------------------------------------------------------------

       Atom             a.u.   MegaHertz   Gauss  10(-4) cm-1        Axes

              Baa    -0.1283   -17.214    -6.142    -5.742 -0.1457  0.7715  0.6194
     1 C(13)  Bbb     0.0456     6.123     2.185     2.042  0.7607  0.4876 -0.4285
              Bcc     0.0827    11.091     3.958     3.700  0.6326 -0.4087  0.6579
 
              Baa    -0.3560   -47.776   -17.048   -15.936 -0.4169 -0.2740  0.8667
     2 C(13)  Bbb     0.0583     7.820     2.790     2.608 -0.3746  0.9205  0.1108
              Bcc     0.2978    39.956    14.257    13.328  0.8282  0.2785  0.4864
 
              Baa    -0.1084   -14.550    -5.192    -4.853 -0.6696  0.7392  0.0722
     3 C(13)  Bbb    -0.0190    -2.556    -0.912    -0.853 -0.2369 -0.3047  0.9225
              Bcc     0.1275    17.106     6.104     5.706  0.7039  0.6006  0.3791
 
              Baa    -0.2843   -38.150   -13.613   -12.726 -0.3949  0.8141 -0.4258
     4 C(13)  Bbb     0.0553     7.421     2.648     2.475  0.8387  0.1304 -0.5287
              Bcc     0.2290    30.730    10.965    10.250  0.3749  0.5659  0.7343
 
              Baa    -0.7561   -29.159   -10.405    -9.726 -0.4094  0.9056  0.1106
     5 N(14)  Bbb    -0.4916   -18.959    -6.765    -6.324  0.1575 -0.0493  0.9863
              Bcc     1.2476    48.119    17.170    16.051  0.8986  0.4212 -0.1225
 
              Baa    -0.3441   -46.178   -16.478   -15.403  0.9313  0.2453  0.2692
     6 C(13)  Bbb    -0.0113    -1.513    -0.540    -0.505 -0.3484  0.8154  0.4623
              Bcc     0.3554    47.692    17.018    15.908 -0.1061 -0.5244  0.8449
 
              Baa    -0.2609   -35.004   -12.490   -11.676  0.9174  0.2872  0.2754
     7 C(13)  Bbb     0.1139    15.284     5.454     5.098 -0.2008  0.9317 -0.3028
              Bcc     0.1470    19.720     7.037     6.578 -0.3435  0.2225  0.9124
 
              Baa    -0.3721   -49.933   -17.817   -16.656  0.9295  0.2151  0.2996
     8 C(13)  Bbb     0.1546    20.740     7.401     6.918 -0.3243  0.0899  0.9417
              Bcc     0.2175    29.192    10.417     9.738 -0.1756  0.9725 -0.1533
 
              Baa    -0.3652   -49.008   -17.487   -16.347 -0.3657  0.7942  0.4854
     9 C(13)  Bbb    -0.0208    -2.795    -0.997    -0.932  0.9213  0.2346  0.3102
              Bcc     0.3860    51.803    18.485    17.280 -0.1325 -0.5606  0.8174
 
              Baa    -3.4739  -181.815   -64.876   -60.647 -0.3693  0.8012  0.4709
    10 Cl(35) Bbb     1.7180    89.915    32.084    29.992  0.9223  0.2540  0.2912
              Bcc     1.7559    91.900    32.792    30.655 -0.1137 -0.5418  0.8328
 
              Baa    -0.3827   -51.355   -18.325   -17.130  0.9253  0.2331  0.2993
    11 C(13)  Bbb     0.1549    20.782     7.416     6.932 -0.1448  0.9462 -0.2893
              Bcc     0.2278    30.573    10.909    10.198 -0.3506  0.2244  0.9092
 
              Baa    -0.2867   -38.471   -13.727   -12.832  0.9568  0.1992  0.2117
    12 C(13)  Bbb     0.1098    14.733     5.257     4.914 -0.2777  0.4110  0.8683
              Bcc     0.1769    23.738     8.470     7.918 -0.0860  0.8896 -0.4485
 
              Baa    -0.3170   -42.540   -15.179   -14.190 -0.0474  0.5178  0.8542
    13 C(13)  Bbb     0.1217    16.336     5.829     5.449  0.4109  0.7895 -0.4558
              Bcc     0.1953    26.204     9.350     8.741  0.9104 -0.3294  0.2502
 
              Baa    -0.3549   -47.619   -16.992   -15.884 -0.0092  0.4780  0.8783
    14 C(13)  Bbb     0.1316    17.662     6.302     5.892  0.9865  0.1481 -0.0703
              Bcc     0.2232    29.957    10.689     9.993 -0.1637  0.8658 -0.4729
 
              Baa    -0.3950   -53.008   -18.915   -17.682 -0.0011  0.4628  0.8864
    15 C(13)  Bbb     0.1838    24.659     8.799     8.225  0.9945  0.0934 -0.0475
              Bcc     0.2113    28.350    10.116     9.457 -0.1048  0.8815 -0.4604
 
              Baa    -0.3588   -48.154   -17.183   -16.062 -0.0051  0.4333  0.9012
    16 C(13)  Bbb     0.1575    21.140     7.543     7.051  0.8460 -0.4786  0.2349
              Bcc     0.2013    27.014     9.639     9.011  0.5331  0.7637 -0.3641
 
              Baa    -0.3354   -45.004   -16.059   -15.012  0.0431  0.4828  0.8746
    17 C(13)  Bbb     0.1354    18.165     6.482     6.059  0.4238  0.7840 -0.4536
              Bcc     0.2000    26.839     9.577     8.952  0.9047 -0.3902  0.1708
 
              Baa    -0.1794   -24.075    -8.591    -8.031 -0.3019  0.4974  0.8133
    18 C(13)  Bbb    -0.1290   -17.308    -6.176    -5.773  0.9448  0.0422  0.3249
              Bcc     0.3084    41.383    14.767    13.804  0.1273  0.8665 -0.4827
 
              Baa    -0.5165   -19.919    -7.108    -6.644  0.6998  0.1635 -0.6954
    19 N(14)  Bbb    -0.4913   -18.947    -6.761    -6.320  0.7085 -0.2831  0.6464
              Bcc     1.0077    38.866    13.868    12.964  0.0912  0.9451  0.3139
 
              Baa    -0.5403   -72.501   -25.870   -24.184  0.1170  0.9328  0.3408
    20 C(13)  Bbb     0.1521    20.405     7.281     6.807  0.5372 -0.3481  0.7683
              Bcc     0.3882    52.095    18.589    17.377  0.8353  0.0932 -0.5418
 
              Baa    -0.1421   -19.070    -6.805    -6.361 -0.3645 -0.2871  0.8858
    21 C(13)  Bbb     0.0406     5.448     1.944     1.817  0.0316  0.9469  0.3199
              Bcc     0.1015    13.622     4.861     4.544  0.9307 -0.1446  0.3361
 
              Baa    -0.8584    62.115    22.164    20.719 -0.3277  0.8910  0.3142
    22 O(17)  Bbb    -0.7966    57.640    20.568    19.227  0.9445  0.3169  0.0865
              Bcc     1.6550  -119.755   -42.732   -39.946  0.0225 -0.3252  0.9454
 
              Baa    -0.2799   -37.555   -13.401   -12.527  0.0304  0.8175  0.5752
    23 C(13)  Bbb     0.0400     5.368     1.916     1.791  0.9951 -0.0788  0.0595
              Bcc     0.2399    32.187    11.485    10.736 -0.0939 -0.5705  0.8159
 
              Baa    -0.3351   -44.966   -16.045   -14.999  0.0232  0.8306  0.5564
    24 C(13)  Bbb     0.1377    18.471     6.591     6.161 -0.1198 -0.5502  0.8264
              Bcc     0.1974    26.494     9.454     8.838  0.9925 -0.0858  0.0867
 
              Baa    -0.4417   -59.269   -21.149   -19.770  0.0270  0.8119  0.5832
    25 C(13)  Bbb     0.1799    24.141     8.614     8.052  0.9325 -0.2306  0.2779
              Bcc     0.2618    35.128    12.535    11.717 -0.3601 -0.5363  0.7633
 
              Baa    -0.4547   -61.020   -21.773   -20.354  0.0139  0.8178  0.5753
    26 C(13)  Bbb     0.1859    24.950     8.903     8.322 -0.1414 -0.5680  0.8108
              Bcc     0.2688    36.070    12.871    12.032  0.9898 -0.0926  0.1078
 
              Baa    -0.4290   -57.562   -20.540   -19.201  0.0002  0.8192  0.5735
    27 C(13)  Bbb     0.1741    23.366     8.338     7.794  0.9868  0.0927 -0.1327
              Bcc     0.2548    34.196    12.202    11.407  0.1619 -0.5660  0.8084
 
              Baa    -0.3300   -44.289   -15.804   -14.773  0.0172  0.8315  0.5553
    28 C(13)  Bbb     0.1408    18.894     6.742     6.302  0.0493 -0.5554  0.8301
              Bcc     0.1892    25.395     9.062     8.471  0.9986  0.0131 -0.0506
 
              Baa    -0.5223   -70.090   -25.010   -23.380  0.0111  0.9217  0.3877
    29 C(13)  Bbb     0.1848    24.797     8.848     8.271  0.9981  0.0134 -0.0603
              Bcc     0.3375    45.293    16.162    15.108  0.0608 -0.3877  0.9198
 
              Baa    -0.8632    62.460    22.287    20.835  0.4615 -0.3004  0.8347
    30 O(17)  Bbb    -0.5742    41.549    14.826    13.859 -0.0063  0.9398  0.3417
              Bcc     1.4374  -104.009   -37.113   -34.694  0.8871  0.1630 -0.4319
 
              Baa    -1.2028    87.034    31.056    29.031 -0.5641 -0.3344  0.7550
    31 O(17)  Bbb    -0.2284    16.525     5.897     5.512 -0.0108  0.9172  0.3982
              Bcc     1.4312  -103.559   -36.953   -34.544  0.8257 -0.2165  0.5210
 
              Baa    -0.5998  -320.009  -114.187  -106.744 -0.2646 -0.0758  0.9614
    32 H(1)   Bbb     0.2811   150.000    53.524    50.035 -0.1920  0.9811  0.0245
              Bcc     0.3186   170.009    60.663    56.709  0.9450  0.1781  0.2742
 
              Baa    -1.0535  -562.120  -200.578  -187.503  0.1160  0.0120  0.9932
    33 H(1)   Bbb     0.4516   240.940    85.973    80.369 -0.4098  0.9114  0.0368
              Bcc     0.6020   321.180   114.605   107.134  0.9048  0.4113 -0.1106
 
              Baa    -0.5828  -310.934  -110.949  -103.716  0.5054  0.3836  0.7729
    34 H(1)   Bbb     0.2806   149.741    53.431    49.948 -0.4487  0.8820 -0.1443
              Bcc     0.3021   161.193    57.518    53.768  0.7371  0.2739 -0.6178
 
              Baa    -0.5919  -315.836  -112.698  -105.351  0.7235  0.6366 -0.2672
    35 H(1)   Bbb     0.2908   155.167    55.367    51.758 -0.6843  0.7123 -0.1561
              Bcc     0.3011   160.669    57.331    53.593  0.0909  0.2958  0.9509
 
              Baa    -0.5933  -316.578  -112.963  -105.599  0.4498  0.3095  0.8378
    36 H(1)   Bbb     0.2896   154.543    55.145    51.550 -0.5886  0.8082  0.0174
              Bcc     0.3037   162.034    57.818    54.049  0.6718  0.5009 -0.5457
 
              Baa    -0.5760  -307.327  -109.662  -102.513  0.9015  0.3357  0.2731
    37 H(1)   Bbb     0.2775   148.059    52.831    49.387 -0.2415 -0.1334  0.9612
              Bcc     0.2985   159.268    56.831    53.126 -0.3591  0.9325  0.0392
 
              Baa    -0.5987  -319.462  -113.992  -106.561  0.8776  0.2922  0.3801
    38 H(1)   Bbb     0.2949   157.324    56.137    52.478 -0.4485  0.7805  0.4355
              Bcc     0.3039   162.138    57.855    54.083 -0.1694 -0.5526  0.8160
 
              Baa    -0.6031  -321.800  -114.826  -107.341 -0.5545 -0.4579  0.6949
    39 H(1)   Bbb     0.2859   152.564    54.439    50.890  0.8320 -0.2861  0.4754
              Bcc     0.3172   169.236    60.387    56.451 -0.0189  0.8417  0.5396
 
              Baa    -0.5940  -316.923  -113.086  -105.714  0.4187 -0.5241  0.7417
    40 H(1)   Bbb     0.2918   155.676    55.549    51.928  0.8788  0.0281 -0.4763
              Bcc     0.3022   161.247    57.537    53.786  0.2288  0.8512  0.4723
 
              Baa    -0.5915  -315.617  -112.620  -105.279 -0.5346 -0.4836  0.6931
    41 H(1)   Bbb     0.2918   155.670    55.547    51.926  0.8119 -0.0662  0.5800
              Bcc     0.2998   159.947    57.073    53.353 -0.2346  0.8728  0.4280
 
              Baa    -0.6023  -321.379  -114.676  -107.200 -0.6144 -0.2590  0.7453
    42 H(1)   Bbb     0.2946   157.210    56.097    52.440  0.0077  0.9426  0.3339
              Bcc     0.3077   164.168    58.579    54.761  0.7890 -0.2109  0.5771
 
              Baa    -0.5997  -319.993  -114.181  -106.738  0.4327 -0.5229  0.7345
    43 H(1)   Bbb     0.2841   151.577    54.086    50.561  0.8985  0.1835 -0.3987
              Bcc     0.3157   168.416    60.095    56.177  0.0737  0.8324  0.5492
 
              Baa    -0.5937  -316.792  -113.039  -105.671 -0.4984  0.7946  0.3466
    44 H(1)   Bbb     0.2888   154.101    54.987    51.403 -0.2125 -0.4996  0.8398
              Bcc     0.3049   162.691    58.052    54.268  0.8405  0.3449  0.4179
 
              Baa    -0.5969  -318.476  -113.640  -106.232  0.6521  0.7294  0.2065
    45 H(1)   Bbb     0.2876   153.442    54.752    51.183  0.0046 -0.2762  0.9611
              Bcc     0.3093   165.034    58.888    55.049  0.7581 -0.6258 -0.1834
 
              Baa    -0.5954  -317.681  -113.357  -105.967  0.6515 -0.3115  0.6917
    46 H(1)   Bbb     0.2934   156.518    55.850    52.209  0.7555  0.1833 -0.6290
              Bcc     0.3021   161.163    57.507    53.758  0.0691  0.9324  0.3547
 
              Baa    -0.5946  -317.241  -113.200  -105.820 -0.3875  0.8249 -0.4115
    47 H(1)   Bbb     0.2817   150.282    53.624    50.129  0.8904  0.4506  0.0648
              Bcc     0.3129   166.960    59.575    55.692 -0.2389  0.3412  0.9091
 
              Baa    -0.5937  -316.780  -113.035  -105.666  0.5984  0.7235 -0.3441
    48 H(1)   Bbb     0.2823   150.604    53.739    50.236  0.8000 -0.5634  0.2066
              Bcc     0.3115   166.176    59.296    55.430  0.0444  0.3989  0.9159
 
              Baa    -0.5943  -317.107  -113.152  -105.775 -0.3858  0.7839 -0.4864
    49 H(1)   Bbb     0.2856   152.369    54.369    50.825  0.9111  0.4066 -0.0673
              Bcc     0.3088   164.738    58.783    54.951 -0.1450  0.4692  0.8711
 
[...]
 **** Fit      -0.060280
 **** Fit      -0.057771
 **** Fit      -0.042152
 **** Fit      -0.043022
 **** Fit      -0.045248
 **** Fit      -0.048824
 **** Fit      -0.053187
 **** Fit      -0.057583
 **** Fit      -0.061443
 **** Fit      -0.064459
 **** Fit      -0.066476
 **** Fit      -0.040550
 **** Fit      -0.053027
 **** Fit      -0.058805
 **** Fit      -0.063915
 **** Fit      -0.067990
 **** Fit      -0.042548
 **** Fit      -0.043279
 **** Fit      -0.042206
 **** Fit      -0.041605
 **** Fit      -0.041588
 **** Fit      -0.042089
 **** Fit      -0.045018
 **** Fit      -0.043492
 **** Fit      -0.042191
 **** Fit      -0.041318
 **** Fit      -0.040980
 **** Fit      -0.041206
 **** Fit      -0.041944
 **** Fit      -0.046263
 **** Fit      -0.044405
 **** Fit      -0.042749
 **** Fit      -0.041481
 **** Fit      -0.040705
 **** Fit      -0.040473
 **** Fit      -0.040801
 **** Fit      -0.041670
 **** Fit      -0.043013
 **** Fit      -0.047667
 **** Fit      -0.045459
 **** Fit      -0.043485
 **** Fit      -0.041901
 **** Fit      -0.040779
 **** Fit      -0.040156
 **** Fit      -0.040051
 **** Fit      -0.040476
 **** Fit      -0.041436
 **** Fit      -0.042919
 **** Fit      -0.044877
 **** Fit      -0.048882
 **** Fit      -0.046128
 **** Fit      -0.043784
 **** Fit      -0.041955
 **** Fit      -0.040659
 **** Fit      -0.039889
 **** Fit      -0.039644
 **** Fit      -0.039934
 **** Fit      -0.040779
 **** Fit      -0.042204
 **** Fit      -0.044237
 **** Fit      -0.046887
 **** Fit      -0.046491
 **** Fit      -0.043783
 **** Fit      -0.041788
 **** Fit      -0.040420
 **** Fit      -0.039600
 **** Fit      -0.039290
 **** Fit      -0.039482
 **** Fit      -0.040199
 **** Fit      -0.041485
 **** Fit      -0.043403
 **** Fit      -0.046037
 **** Fit      -0.049487
 **** Fit      -0.039269
 **** Fit      -0.038879
 **** Fit      -0.038949
 **** Fit      -0.039485
 **** Fit      -0.040536
 **** Fit      -0.042181
 **** Fit      -0.044533
 **** Fit      -0.047755
 **** Fit      -0.038048
 **** Fit      -0.038400
 **** Fit      -0.039143
 **** Fit      -0.040360
 **** Fit      -0.042179
 **** Fit      -0.044775
 **** Fit      -0.048404
 **** Fit      -0.038275
 **** Fit      -0.039691
 **** Fit      -0.041600
 **** Fit      -0.044259
 **** Fit      -0.048019
 **** Fit      -0.040769
 **** Fit      -0.043441
 **** Fit      -0.047098
 **** Fit      -0.041065
 **** Fit      -0.041454
 **** Fit      -0.041330
 **** Fit      -0.041404
 **** Fit      -0.041746
 **** Fit      -0.041945
 **** Fit      -0.041675
 **** Fit      -0.041408
 **** Fit      -0.041668
 **** Fit      -0.041584
 **** Fit      -0.041577
 **** Fit      -0.041801
 **** Fit      -0.042228
 **** Fit      -0.042622
 **** Fit      -0.042708
 **** Fit      -0.042426
 **** Fit      -0.042003
 **** Fit      -0.041722
 **** Fit      -0.041656
 **** Fit      -0.041687
 **** Fit      -0.042568
 **** Fit      -0.042397
 **** Fit      -0.042166
 **** Fit      -0.042016
 **** Fit      -0.042068
 **** Fit      -0.042362
 **** Fit      -0.042828
 **** Fit      -0.042092
 **** Fit      -0.042081
 **** Fit      -0.042240
 **** Fit      -0.042450
 **** Fit      -0.042587
 **** Fit      -0.044155
 **** Fit      -0.043897
 **** Fit      -0.043485
 **** Fit      -0.043045
 **** Fit      -0.042714
 **** Fit      -0.042598
 **** Fit      -0.042741
 **** Fit      -0.043117
 **** Fit      -0.042706
 **** Fit      -0.043126
 **** Fit      -0.043584
 **** Fit      -0.043970
 **** Fit      -0.044181
 **** Fit      -0.046591
 **** Fit      -0.046226
 **** Fit      -0.045606
 **** Fit      -0.044862
 **** Fit      -0.044143
 **** Fit      -0.043583
 **** Fit      -0.043278
 **** Fit      -0.043268
 **** Fit      -0.043529
 **** Fit      -0.043423
 **** Fit      -0.044187
 **** Fit      -0.044994
 **** Fit      -0.045743
 **** Fit      -0.046321
 **** Fit      -0.046624
 **** Fit      -0.050114
 **** Fit      -0.049624
 **** Fit      -0.048767
 **** Fit      -0.047679
 **** Fit      -0.046523
 **** Fit      -0.045452
 **** Fit      -0.044593
 **** Fit      -0.044027
 **** Fit      -0.043787
 **** Fit      -0.045423
 **** Fit      -0.046679
 **** Fit      -0.047892
 **** Fit      -0.048956
 **** Fit      -0.049749
 **** Fit      -0.050157
 **** Fit      -0.055089
 **** Fit      -0.054386
 **** Fit      -0.053127
 **** Fit      -0.051494
 **** Fit      -0.049704
 **** Fit      -0.047965
 **** Fit      -0.046444
 **** Fit      -0.045257
 **** Fit      -0.044465
 **** Fit      -0.049886
 **** Fit      -0.051716
 **** Fit      -0.053314
 **** Fit      -0.054505
 **** Fit      -0.055129
 **** Fit      -0.062114
 **** Fit      -0.061110
 **** Fit      -0.059285
 **** Fit      -0.056893
 **** Fit      -0.054229
 **** Fit      -0.051572
 **** Fit      -0.049146
 **** Fit      -0.047106
 **** Fit      -0.054435
 **** Fit      -0.057112
 **** Fit      -0.059457
 **** Fit      -0.061215
 **** Fit      -0.062148
 **** Fit      -0.060227
 **** Fit      -0.056180
 **** Fit      -0.052451
 **** Fit      -0.045314
 **** Fit      -0.046361
 **** Fit      -0.043633
 **** Fit      -0.041008
 **** Fit      -0.047935
 **** Fit      -0.045562
 **** Fit      -0.043265
 **** Fit      -0.041083
 **** Fit      -0.038999
 **** Fit      -0.047090
 **** Fit      -0.045153
 **** Fit      -0.043205
 **** Fit      -0.041376
 **** Fit      -0.039731
 **** Fit      -0.038260
 **** Fit      -0.046284
 **** Fit      -0.044480
 **** Fit      -0.042727
 **** Fit      -0.041172
 **** Fit      -0.039889
 **** Fit      -0.038907
 **** Fit      -0.038207
 **** Fit      -0.047613
 **** Fit      -0.045957
 **** Fit      -0.044249
 **** Fit      -0.042701
 **** Fit      -0.041430
 **** Fit      -0.040507
 **** Fit      -0.039972
 **** Fit      -0.039847
 **** Fit      -0.048279
 **** Fit      -0.046540
 **** Fit      -0.044866
 **** Fit      -0.043425
 **** Fit      -0.042318
 **** Fit      -0.041613
 **** Fit      -0.041357
 **** Fit      -0.041587
 **** Fit      -0.042299
 **** Fit      -0.050517
 **** Fit      -0.048565
 **** Fit      -0.046704
 **** Fit      -0.045112
 **** Fit      -0.043898
 **** Fit      -0.043136
 **** Fit      -0.042882
 **** Fit      -0.043184
 **** Fit      -0.044067
 **** Fit      -0.051815
 **** Fit      -0.049543
 **** Fit      -0.047590
 **** Fit      -0.046063
 **** Fit      -0.045041
 **** Fit      -0.044584
 **** Fit      -0.044749
 **** Fit      -0.045579
 **** Fit      -0.047093
 **** Fit      -0.050644
 **** Fit      -0.048713
 **** Fit      -0.047345
 **** Fit      -0.046593
 **** Fit      -0.046510
 **** Fit      -0.047153
 **** Fit      -0.048580
 **** Fit      -0.050963
 **** Fit      -0.049409
 **** Fit      -0.048644
 **** Fit      -0.048725
 **** Fit      -0.049738
 **** Fit      -0.051689
 **** Fit      -0.050893
 **** Fit      -0.061515
 **** Fit      -0.060821
 **** Fit      -0.058255
 **** Fit      -0.060708
 **** Fit      -0.057791
 **** Fit      -0.055488
 **** Fit      -0.054062
 **** Fit      -0.062213
 **** Fit      -0.058818
 **** Fit      -0.055899
 **** Fit      -0.053532
 **** Fit      -0.051735
 **** Fit      -0.065795
 **** Fit      -0.061708
 **** Fit      -0.058121
 **** Fit      -0.055081
 **** Fit      -0.052524
 **** Fit      -0.050330
 **** Fit      -0.070331
 **** Fit      -0.065503
 **** Fit      -0.061295
 **** Fit      -0.057715
 **** Fit      -0.054686
 **** Fit      -0.052077
 **** Fit      -0.049703
 **** Fit      -0.074335
 **** Fit      -0.068597
 **** Fit      -0.063739
 **** Fit      -0.059670
 **** Fit      -0.056270
 **** Fit      -0.053384
 **** Fit      -0.050810
 **** Fit      -0.048273
 **** Fit      -0.078509
 **** Fit      -0.071999
 **** Fit      -0.066593
 **** Fit      -0.062116
 **** Fit      -0.058409
 **** Fit      -0.055311
 **** Fit      -0.052636
 **** Fit      -0.050148
 **** Fit      -0.078006
 **** Fit      -0.071633
 **** Fit      -0.066401
 **** Fit      -0.062107
 **** Fit      -0.058575
 **** Fit      -0.055636
 **** Fit      -0.053103
 **** Fit      -0.050737
 **** Fit      -0.082731
 **** Fit      -0.075496
 **** Fit      -0.069617
 **** Fit      -0.064844
 **** Fit      -0.060978
 **** Fit      -0.057838
 **** Fit      -0.055243
 **** Fit      -0.052986
 **** Fit      -0.082294
 **** Fit      -0.075235
 **** Fit      -0.069536
 **** Fit      -0.064971
 **** Fit      -0.061345
 **** Fit      -0.058482
 **** Fit      -0.056209
 **** Fit      -0.089492
 **** Fit      -0.081473
 **** Fit      -0.074918
 **** Fit      -0.069644
 **** Fit      -0.065480
 **** Fit      -0.062268
 **** Fit      -0.059869
 **** Fit      -0.086236
 **** Fit      -0.078978
 **** Fit      -0.073123
 **** Fit      -0.068569
 **** Fit      -0.065192
 **** Fit      -0.083147
 **** Fit      -0.076884
 **** Fit      -0.072016
 **** Fit      -0.091946
 **** Fit      -0.097213
 **** Fit      -0.090455
 **** Fit      -0.094856
 **** Fit      -0.090916
 **** Fit      -0.096199
 **** Fit      -0.090747
 **** Fit      -0.086901
 **** Fit      -0.084938
 **** Fit      -0.043517
 **** Fit      -0.042115
 **** Fit      -0.045681
 **** Fit      -0.045844
 **** Fit      -0.043652
 **** Fit      -0.041320
 **** Fit      -0.040899
 **** Fit      -0.049879
 **** Fit      -0.048478
 **** Fit      -0.045810
 **** Fit      -0.043381
 **** Fit      -0.041947
 **** Fit      -0.041002
 **** Fit      -0.041044
 **** Fit      -0.040731
 **** Fit      -0.054399
 **** Fit      -0.053753
 **** Fit      -0.051489
 **** Fit      -0.048291
 **** Fit      -0.045135
 **** Fit      -0.042836
 **** Fit      -0.041563
 **** Fit      -0.041061
 **** Fit      -0.041052
 **** Fit      -0.041518
 **** Fit      -0.041829
 **** Fit      -0.058624
 **** Fit      -0.056143
 **** Fit      -0.052532
 **** Fit      -0.048415
 **** Fit      -0.044783
 **** Fit      -0.042352
 **** Fit      -0.041083
 **** Fit      -0.040634
 **** Fit      -0.040697
 **** Fit      -0.041365
 **** Fit      -0.042231
 **** Fit      -0.043103
 **** Fit      -0.062745
 **** Fit      -0.059414
 **** Fit      -0.054863
 **** Fit      -0.040506
 **** Fit      -0.040016
 **** Fit      -0.040152
 **** Fit      -0.040645
 **** Fit      -0.041823
 **** Fit      -0.043064
 **** Fit      -0.069773
 **** Fit      -0.039074
 **** Fit      -0.039245
 **** Fit      -0.039881
 **** Fit      -0.040758
 **** Fit      -0.042292
 **** Fit      -0.044018
 **** Fit      -0.040764
 **** Fit      -0.042637
 **** Fit      -0.046037
 **** Fit      -0.044359
 **** Fit      -0.045576
 **** Fit      -0.047475
 **** Fit      -0.048210
 **** Fit      -0.047014
 **** Fit      -0.045021
 **** Fit      -0.043177
 **** Fit      -0.044038
 **** Fit      -0.045640
 **** Fit      -0.047646
 **** Fit      -0.049477
 **** Fit      -0.050617
 **** Fit      -0.050871
 **** Fit      -0.050166
 **** Fit      -0.048500
 **** Fit      -0.046279
 **** Fit      -0.044307
 **** Fit      -0.043227
 **** Fit      -0.042489
 **** Fit      -0.043248
 **** Fit      -0.044503
 **** Fit      -0.046236
 **** Fit      -0.048322
 **** Fit      -0.050455
 **** Fit      -0.052237
 **** Fit      -0.053403
 **** Fit      -0.053955
 **** Fit      -0.053999
 **** Fit      -0.053512
 **** Fit      -0.052358
 **** Fit      -0.050487
 **** Fit      -0.048108
 **** Fit      -0.045693
 **** Fit      -0.043767
 **** Fit      -0.042623
 **** Fit      -0.042247
 **** Fit      -0.042296
 **** Fit      -0.043072
 **** Fit      -0.044197
 **** Fit      -0.045738
 **** Fit      -0.047734
 **** Fit      -0.050118
 **** Fit      -0.057640
 **** Fit      -0.057397
 **** Fit      -0.056795
 **** Fit      -0.055622
 **** Fit      -0.053744
 **** Fit      -0.051226
 **** Fit      -0.048363
 **** Fit      -0.045635
 **** Fit      -0.043518
 **** Fit      -0.042251
 **** Fit      -0.041765
 **** Fit      -0.041839
 **** Fit      -0.042604
 **** Fit      -0.043446
 **** Fit      -0.044530
 **** Fit      -0.045968
 **** Fit      -0.047881
 **** Fit      -0.061287
 **** Fit      -0.060819
 **** Fit      -0.059910
 **** Fit      -0.058314
 **** Fit      -0.055929
 **** Fit      -0.052841
 **** Fit      -0.049368
 **** Fit      -0.046039
 **** Fit      -0.043435
 **** Fit      -0.041894
 **** Fit      -0.041345
 **** Fit      -0.041463
 **** Fit      -0.041936
 **** Fit      -0.043441
 **** Fit      -0.044339
 **** Fit      -0.045374
 **** Fit      -0.046684
 **** Fit      -0.048428
 **** Fit      -0.065391
 **** Fit      -0.040926
 **** Fit      -0.041707
 **** Fit      -0.042576
 **** Fit      -0.044862
 **** Fit      -0.045850
 **** Fit      -0.046894
 **** Fit      -0.048174
 **** Fit      -0.049900
 **** Fit      -0.057763
 **** Fit      -0.059572
 **** Fit      -0.061714
 **** Fit      -0.064130
 **** Fit      -0.049668
 **** Fit      -0.049290
 **** Fit      -0.049169
 **** Fit      -0.049264
 **** Fit      -0.049571
 **** Fit      -0.050114
 **** Fit      -0.050929
 **** Fit      -0.052049
 **** Fit      -0.053497
 **** Fit      -0.055280
 **** Fit      -0.057377
 **** Fit      -0.059728
 **** Fit      -0.062223
 **** Fit      -0.047483
 **** Fit      -0.046786
 **** Fit      -0.046425
 **** Fit      -0.046357
 **** Fit      -0.046567
 **** Fit      -0.047063
 **** Fit      -0.047863
 **** Fit      -0.048988
 **** Fit      -0.050450
 **** Fit      -0.052240
 **** Fit      -0.054320
 **** Fit      -0.056602
 **** Fit      -0.058945
 **** Fit      -0.061148
 **** Fit      -0.046042
 **** Fit      -0.045127
 **** Fit      -0.044561
 **** Fit      -0.044320
 **** Fit      -0.044392
 **** Fit      -0.044777
 **** Fit      -0.045485
 **** Fit      -0.046524
 **** Fit      -0.047894
 **** Fit      -0.049572
 **** Fit      -0.051498
 **** Fit      -0.053562
 **** Fit      -0.055592
 **** Fit      -0.057356
 **** Fit      -0.044678
 **** Fit      -0.043740
 **** Fit      -0.043130
 **** Fit      -0.042867
 **** Fit      -0.042960
 **** Fit      -0.043420
 **** Fit      -0.044250
 **** Fit      -0.045443
 **** Fit      -0.046963
 **** Fit      -0.048728
 **** Fit      -0.050587
 **** Fit      -0.052308
 **** Fit      -0.053576
 **** Fit      -0.043381
 **** Fit      -0.042628
 **** Fit      -0.042081
 **** Fit      -0.041849
 **** Fit      -0.041989
 **** Fit      -0.042525
 **** Fit      -0.043454
 **** Fit      -0.044731
 **** Fit      -0.046248
 **** Fit      -0.047811
 **** Fit      -0.049116
 **** Fit      -0.049754
 **** Fit      -0.041542
 **** Fit      -0.041227
 **** Fit      -0.041160
 **** Fit      -0.041485
 **** Fit      -0.042240
 **** Fit      -0.043362
 **** Fit      -0.044660
 **** Fit      -0.045787
 **** Fit      -0.046230
 **** Fit      -0.045366
 **** Fit      -0.040463
 **** Fit      -0.040574
 **** Fit      -0.040837
 **** Fit      -0.041544
 **** Fit      -0.042572
 **** Fit      -0.043379
 **** Fit      -0.043083
 **** Fit      -0.039409
 **** Fit      -0.040167
 **** Fit      -0.040871
 **** Fit      -0.041407
 **** Fit      -0.040018
 **** Fit      -0.052342
 **** Fit      -0.054466
 **** Fit      -0.057021
 **** Fit      -0.060192
 **** Fit      -0.050033
 **** Fit      -0.050720
 **** Fit      -0.051694
 **** Fit      -0.053019
 **** Fit      -0.054779
 **** Fit      -0.057057
 **** Fit      -0.059931
 **** Fit      -0.063469
 **** Fit      -0.049617
 **** Fit      -0.049449
 **** Fit      -0.049568
 **** Fit      -0.049995
 **** Fit      -0.050773
 **** Fit      -0.051945
 **** Fit      -0.053550
 **** Fit      -0.055612
 **** Fit      -0.058139
 **** Fit      -0.061113
 **** Fit      -0.064473
 **** Fit      -0.060752
 **** Fit      -0.062903
 **** Fit      -0.049037
 **** Fit      -0.048571
 **** Fit      -0.048378
 **** Fit      -0.048482
 **** Fit      -0.048908
 **** Fit      -0.049677
 **** Fit      -0.050799
 **** Fit      -0.052270
 **** Fit      -0.054069
 **** Fit      -0.056149
 **** Fit      -0.058425
 **** Fit      -0.055514
 **** Fit      -0.056851
 **** Fit      -0.048447
 **** Fit      -0.047782
 **** Fit      -0.047363
 **** Fit      -0.047219
 **** Fit      -0.047369
 **** Fit      -0.047821
 **** Fit      -0.048572
 **** Fit      -0.049607
 **** Fit      -0.050893
 **** Fit      -0.052372
 **** Fit      -0.053957
 **** Fit      -0.051775
 **** Fit      -0.047510
 **** Fit      -0.046831
 **** Fit      -0.046405
 **** Fit      -0.046258
 **** Fit      -0.046400
 **** Fit      -0.046827
 **** Fit      -0.047518
 **** Fit      -0.048435
 **** Fit      -0.049517
 **** Fit      -0.050674
 **** Fit      -0.049114
 **** Fit      -0.046145
 **** Fit      -0.045713
 **** Fit      -0.045562
 **** Fit      -0.045694
 **** Fit      -0.046089
 **** Fit      -0.046709
 **** Fit      -0.047488
 **** Fit      -0.048334
 **** Fit      -0.045626
 **** Fit      -0.045243
 **** Fit      -0.045129
 **** Fit      -0.045272
 **** Fit      -0.045633
 **** Fit      -0.046147
 -----------------------------------------------------------------
 Leave Link  602 at Wed Jul 12 12:31:18 2017, MaxMem=   33554432 cpu:      18.1

 Test job not archived.
 1\1\GINC-NODE41\FOpt\RHF\6-31G(d)\C25H22Cl1N2O3(1-)\DAVE\12-Jul-2017\0
 \\#HF/6-31G* SCF=tight Test Pop=MK iop(6/33=2) iop(6/42=6) opt\\remark
  line goes here\\-1,1\C,14.9990510762,6.1064064022,9.9259876151\C,13.9
 734078349,5.1997817843,9.2514648983\C,14.629150671,4.2106547802,8.2678
 260039\C,13.8663495163,2.8802382519,8.1995149857\N,14.4107362409,2.062
 7906262,7.1431460385\C,13.7283906911,1.0248001218,6.5223214264\C,14.41
 21070746,0.2405401981,5.5873586405\C,13.7761594346,-0.7698008118,4.899
 0150825\C,12.4325261602,-1.0158054554,5.1236689606\Cl,11.6179658392,-2
 .2851156628,4.2391627941\C,11.7415528379,-0.2634023842,6.0483850683\C,
 12.3826582882,0.7458213372,6.749212985\C,13.9209651374,2.2950394245,9.
 6026913859\C,14.3747909092,1.0270362061,9.9156091076\C,14.5108029091,0
 .6041237402,11.2404805237\C,14.1939462736,1.5135800185,12.2455023871\C
 ,13.7530032952,2.7914532236,11.9456447335\C,13.5894861756,3.1782666699
 ,10.6278759317\N,13.1565914923,4.4786686027,10.2449543948\C,12.0060147
 697,5.0763606024,10.6699844947\C,11.0310987943,4.2759486629,11.5114899
 936\O,11.7442895577,6.2141508569,10.3726550779\C,15.0082470613,-0.7595
 605767,11.5686638034\C,14.4310884922,-1.504152336,12.5955002237\C,14.9
 07647811,-2.7651626175,12.9104637678\C,15.9746327337,-3.3232784614,12.
 2175822676\C,16.5479544968,-2.581961058,11.1921020895\C,16.0743317451,
 -1.3219268038,10.8693182679\C,16.5135600865,-4.7295679934,12.581498271
 6\O,17.4643279631,-5.1102033379,11.8993391458\O,15.9233819327,-5.28468
 83633,13.5075513878\H,15.4531723348,0.4341940394,5.3963123894\H,15.396
 3152865,1.9250176849,7.1985804857\H,12.8388987551,3.1083011564,7.93981
 42474\H,14.6719597248,4.6630524039,7.283017997\H,15.6517676968,3.99993
 00472,8.5708367306\H,13.2794917438,5.8166146526,8.702456638\H,15.67014
 88114,5.5268426253,10.5526354278\H,16.5545120651,-0.7582360254,10.0867
 072944\H,17.3762728366,-3.0146119364,10.6642324423\H,14.4619676881,-3.
 3455709501,13.6956114448\H,15.5963853156,6.6249328045,9.1805103471\H,1
 3.5897297182,-1.102597207,13.135478081\H,11.0114334036,3.2251927983,11
 .2595935287\H,11.2818738937,4.3656258691,12.5623740166\H,10.054751039,
 4.7149016562,11.3616825458\H,13.5567524125,3.4901545288,12.7385682349\
 H,14.330528707,1.2318851156,13.2730951208\H,14.613122591,0.3391449354,
 9.1270044285\H,11.8245647832,1.2933722547,7.4829695726\H,10.7041220447
 ,-0.4654637289,6.2381658404\H,14.3207631219,-1.361774443,4.1877125478\
 H,14.5002487248,6.8470560711,10.5386688839\\Version=EM64L-G09RevC.01\S
 tate=1-A\HF=-1752.5647749\RMSD=7.691e-09\RMSF=1.036e-06\Dipole=-3.1806
 438,8.9566006,-4.5854975\Quadrupole=42.7320864,-69.2767399,26.5446535,
 57.0853293,-36.017042,54.5611335\PG=C01 [X(C25H22Cl1N2O3)]\\@


 I am not a vegetarian because I love animals;
 I am a vegetarian because I hate plants.
                               -- A. Whitney Brown
 Job cpu time:  0 days 14 hours 10 minutes 39.2 seconds.
 File lengths (MBytes):  RWF=    175 Int=      0 D2E=      0 Chk=     20 Scr=      1
 Normal termination of Gaussian 09 at Wed Jul 12 12:31:18 2017.
